/*--------------------------------*- C++ -*----------------------------------*\
| =========                 |                                                 |
| \\      /  F ield         | OpenFOAM: The Open Source CFD Toolbox           |
|  \\    /   O peration     | Version:  2406                                  |
|   \\  /    A nd           | Website:  www.openfoam.com                      |
|    \\/     M anipulation  |                                                 |
\*---------------------------------------------------------------------------*/
FoamFile
{
    version     2.0;
    format      ascii;
    arch        "LSB;label=32;scalar=64";
    class       volScalarField;
    location    "0.8";
    object      p;
}
// * * * * * * * * * * * * * * * * * * * * * * * * * * * * * * * * * * * * * //

dimensions      [0 2 -2 0 0 0 0];

internalField   nonuniform List<scalar> 
25000
(
19.5707
19.5221
19.4909
19.4703
19.4601
19.4601
19.4702
19.4908
19.522
19.5706
19.5222
19.4675
19.4308
19.4068
19.3949
19.3949
19.4067
19.4307
19.4674
19.522
19.4909
19.4308
19.3892
19.3621
19.3488
19.3487
19.362
19.3891
19.4307
19.4908
19.4703
19.4068
19.3621
19.3331
19.3188
19.3188
19.333
19.362
19.4067
19.4702
19.4602
19.395
19.3488
19.3188
19.3041
19.3041
19.3188
19.3487
19.3949
19.4601
19.4602
19.395
19.3488
19.3188
19.3041
19.3041
19.3188
19.3487
19.3949
19.4601
19.4703
19.4068
19.3621
19.3331
19.3188
19.3188
19.333
19.362
19.4067
19.4702
19.4909
19.4308
19.3892
19.3621
19.3488
19.3488
19.3621
19.3891
19.4307
19.4908
19.5222
19.4676
19.4308
19.4068
19.395
19.3949
19.4068
19.4307
19.4674
19.522
19.5708
19.5222
19.4909
19.4703
19.4602
19.4602
19.4703
19.4908
19.5221
19.5706
18.0987
18.1264
18.1457
18.1589
18.1657
18.1657
18.1588
18.1455
18.1262
18.0984
18.1265
18.157
18.1786
18.1934
18.2012
18.2012
18.1933
18.1784
18.1567
18.1262
18.1458
18.1786
18.203
18.2203
18.2293
18.2293
18.2202
18.2028
18.1784
18.1455
18.1591
18.1935
18.2203
18.2394
18.2493
18.2493
18.2393
18.2201
18.1933
18.1587
18.1658
18.2013
18.2294
18.2494
18.2596
18.2596
18.2493
18.2292
18.2011
18.1656
18.1658
18.2013
18.2294
18.2494
18.2596
18.2596
18.2493
18.2292
18.2011
18.1655
18.159
18.1935
18.2203
18.2394
18.2493
18.2493
18.2393
18.2201
18.1933
18.1587
18.1458
18.1786
18.203
18.2203
18.2293
18.2293
18.2202
18.2028
18.1784
18.1455
18.1265
18.1569
18.1786
18.1934
18.2012
18.2012
18.1933
18.1784
18.1567
18.1262
18.0987
18.1264
18.1457
18.1589
18.1657
18.1657
18.1589
18.1456
18.1262
18.0984
18.1891
18.1858
18.1841
18.1831
18.1826
18.1826
18.183
18.1839
18.1855
18.1886
18.1859
18.1827
18.1806
18.1792
18.1784
18.1784
18.179
18.1804
18.1824
18.1854
18.1842
18.1807
18.1783
18.1766
18.1759
18.1758
18.1765
18.178
18.1803
18.1838
18.1833
18.1793
18.1767
18.1752
18.1746
18.1745
18.175
18.1764
18.1789
18.1829
18.1828
18.1786
18.176
18.1746
18.1743
18.1742
18.1745
18.1757
18.1783
18.1824
18.1828
18.1786
18.176
18.1746
18.1743
18.1742
18.1745
18.1757
18.1783
18.1824
18.1833
18.1793
18.1767
18.1752
18.1746
18.1745
18.175
18.1765
18.179
18.1829
18.1843
18.1807
18.1783
18.1767
18.1759
18.1759
18.1765
18.178
18.1804
18.1838
18.186
18.1828
18.1807
18.1792
18.1785
18.1784
18.1791
18.1804
18.1824
18.1855
18.1892
18.1859
18.1842
18.1832
18.1827
18.1827
18.1831
18.184
18.1856
18.1888
17.4923
17.4952
17.4974
17.4991
17.4999
17.4998
17.4988
17.497
17.4947
17.4915
17.4954
17.4991
17.5018
17.5038
17.5047
17.5047
17.5035
17.5014
17.4985
17.4946
17.4976
17.5019
17.5051
17.5073
17.5085
17.5084
17.507
17.5046
17.5013
17.4969
17.4994
17.504
17.5074
17.5098
17.5111
17.511
17.5096
17.507
17.5034
17.4986
17.5003
17.5051
17.5087
17.5112
17.5126
17.5125
17.5109
17.5082
17.5045
17.4996
17.5003
17.5051
17.5087
17.5112
17.5126
17.5125
17.511
17.5082
17.5045
17.4996
17.4994
17.504
17.5075
17.5099
17.5112
17.5111
17.5096
17.507
17.5034
17.4987
17.4978
17.502
17.5052
17.5074
17.5086
17.5085
17.5071
17.5047
17.5014
17.497
17.4955
17.4993
17.502
17.5039
17.5049
17.5048
17.5036
17.5015
17.4987
17.4947
17.4925
17.4954
17.4976
17.4993
17.5001
17.5
17.499
17.4972
17.4949
17.4917
17.2578
17.2563
17.2555
17.2549
17.2546
17.2545
17.2547
17.2551
17.2558
17.257
17.2566
17.2548
17.2537
17.2528
17.2523
17.2522
17.2525
17.2532
17.2542
17.2557
17.2558
17.2538
17.2522
17.2511
17.2505
17.2504
17.2508
17.2517
17.2531
17.255
17.2553
17.253
17.2512
17.2499
17.2492
17.2491
17.2496
17.2508
17.2524
17.2545
17.2551
17.2527
17.2508
17.2493
17.2486
17.2485
17.2491
17.2503
17.252
17.2543
17.2551
17.2527
17.2508
17.2494
17.2487
17.2486
17.2491
17.2503
17.2521
17.2544
17.2555
17.2532
17.2514
17.2501
17.2494
17.2492
17.2498
17.2509
17.2525
17.2547
17.2561
17.2541
17.2525
17.2514
17.2507
17.2506
17.251
17.252
17.2534
17.2552
17.257
17.2553
17.254
17.2531
17.2526
17.2525
17.2528
17.2535
17.2546
17.256
17.2584
17.2569
17.256
17.2554
17.255
17.2549
17.2551
17.2555
17.2563
17.2574
16.8025
16.8031
16.8037
16.8041
16.8043
16.8042
16.8039
16.8033
16.8026
16.8016
16.8036
16.8044
16.805
16.8054
16.8056
16.8055
16.8051
16.8045
16.8037
16.8025
16.8041
16.8052
16.8059
16.8064
16.8065
16.8064
16.806
16.8054
16.8044
16.8032
16.8046
16.8057
16.8065
16.8069
16.807
16.8069
16.8066
16.806
16.805
16.8037
16.8048
16.806
16.8068
16.8071
16.8071
16.807
16.8069
16.8063
16.8054
16.804
16.8049
16.8061
16.8069
16.8072
16.8071
16.8071
16.8069
16.8064
16.8055
16.8041
16.8047
16.8059
16.8067
16.8071
16.8071
16.8071
16.8068
16.8062
16.8053
16.8039
16.8043
16.8054
16.8062
16.8066
16.8068
16.8067
16.8063
16.8057
16.8048
16.8035
16.8038
16.8047
16.8054
16.8058
16.806
16.8059
16.8055
16.805
16.8042
16.8029
16.8031
16.8038
16.8043
16.8046
16.8047
16.8047
16.8044
16.8039
16.8033
16.8023
16.469
16.4683
16.4681
16.4678
16.4677
16.4676
16.4676
16.4677
16.4678
16.468
16.4688
16.468
16.4676
16.4672
16.467
16.4669
16.4669
16.4671
16.4674
16.4678
16.4684
16.4677
16.4671
16.4667
16.4665
16.4664
16.4664
16.4667
16.4671
16.4676
16.4682
16.4674
16.4668
16.4663
16.466
16.466
16.4661
16.4664
16.4669
16.4675
16.468
16.4673
16.4666
16.4661
16.4658
16.4658
16.4659
16.4663
16.4668
16.4675
16.468
16.4673
16.4666
16.4661
16.4658
16.4658
16.466
16.4664
16.4669
16.4676
16.4681
16.4674
16.4668
16.4664
16.4661
16.4661
16.4663
16.4666
16.4671
16.4678
16.4682
16.4677
16.4672
16.4668
16.4666
16.4666
16.4667
16.467
16.4675
16.468
16.4685
16.468
16.4677
16.4674
16.4672
16.4672
16.4673
16.4676
16.4679
16.4682
16.469
16.4686
16.4683
16.4681
16.468
16.468
16.4681
16.4683
16.4686
16.4688
16.0777
16.0777
16.0778
16.0779
16.0779
16.0779
16.0778
16.0776
16.0773
16.077
16.0779
16.078
16.0781
16.0782
16.0782
16.0782
16.0781
16.0779
16.0776
16.0774
16.0779
16.0781
16.0783
16.0784
16.0785
16.0784
16.0783
16.0781
16.0778
16.0775
16.0779
16.0782
16.0784
16.0785
16.0785
16.0785
16.0784
16.0782
16.078
16.0777
16.0778
16.0781
16.0784
16.0785
16.0785
16.0785
16.0785
16.0783
16.0781
16.0777
16.0776
16.078
16.0782
16.0784
16.0784
16.0784
16.0784
16.0783
16.0781
16.0778
16.0774
16.0778
16.0781
16.0782
16.0783
16.0784
16.0784
16.0783
16.0781
16.0777
16.0771
16.0775
16.0778
16.078
16.0782
16.0782
16.0782
16.0781
16.0779
16.0776
16.0769
16.0772
16.0775
16.0777
16.0779
16.0779
16.0779
16.0779
16.0777
16.0773
16.0766
16.0768
16.0771
16.0773
16.0775
16.0776
16.0776
16.0776
16.0776
16.0773
15.7178
15.7177
15.7176
15.7176
15.7176
15.7176
15.7177
15.7178
15.7178
15.718
15.7174
15.7173
15.7173
15.7173
15.7173
15.7174
15.7175
15.7176
15.7177
15.718
15.7172
15.7171
15.717
15.717
15.717
15.7171
15.7172
15.7174
15.7176
15.7179
15.7169
15.7168
15.7168
15.7167
15.7168
15.7169
15.717
15.7172
15.7174
15.7177
15.7167
15.7166
15.7165
15.7165
15.7166
15.7167
15.7169
15.7171
15.7173
15.7176
15.7164
15.7163
15.7163
15.7163
15.7164
15.7165
15.7168
15.717
15.7172
15.7175
15.7162
15.7162
15.7161
15.7162
15.7163
15.7165
15.7167
15.7169
15.7172
15.7175
15.7161
15.716
15.7161
15.7161
15.7163
15.7165
15.7167
15.7169
15.7172
15.7174
15.7161
15.7159
15.716
15.7161
15.7163
15.7165
15.7167
15.7169
15.7172
15.7173
15.7158
15.7157
15.7159
15.7161
15.7163
15.7166
15.7168
15.7171
15.7174
15.7175
15.3426
15.3431
15.3432
15.3433
15.3435
15.3436
15.3438
15.3439
15.3439
15.3442
15.3421
15.3426
15.3429
15.3431
15.3434
15.3436
15.3438
15.344
15.3441
15.3444
15.342
15.3425
15.3428
15.343
15.3433
15.3435
15.3437
15.3439
15.344
15.3442
15.3419
15.3423
15.3426
15.3428
15.3431
15.3433
15.3436
15.3438
15.3439
15.3441
15.3417
15.342
15.3423
15.3426
15.3429
15.3431
15.3434
15.3436
15.3438
15.3439
15.3415
15.3418
15.3421
15.3423
15.3426
15.3429
15.3432
15.3435
15.3436
15.3437
15.3413
15.3415
15.3418
15.3421
15.3424
15.3427
15.343
15.3433
15.3435
15.3436
15.341
15.3412
15.3415
15.3418
15.3422
15.3425
15.3428
15.3431
15.3433
15.3434
15.3409
15.3409
15.3412
15.3415
15.3419
15.3422
15.3426
15.3428
15.3431
15.3432
15.3402
15.3403
15.3408
15.3412
15.3416
15.342
15.3423
15.3427
15.343
15.3431
14.9755
14.9762
14.9763
14.9766
14.9768
14.977
14.9773
14.9776
14.9777
14.9783
14.9747
14.9755
14.9759
14.9762
14.9765
14.9769
14.9773
14.9776
14.9779
14.9785
14.9747
14.9752
14.9756
14.976
14.9763
14.9767
14.9771
14.9775
14.9778
14.9782
14.9746
14.975
14.9754
14.9758
14.9761
14.9765
14.9769
14.9773
14.9777
14.9781
14.9745
14.9748
14.9752
14.9755
14.9759
14.9763
14.9767
14.9771
14.9775
14.9779
14.9744
14.9746
14.975
14.9753
14.9757
14.9762
14.9766
14.977
14.9774
14.9777
14.9743
14.9745
14.9747
14.9751
14.9756
14.976
14.9765
14.9769
14.9773
14.9776
14.9742
14.9743
14.9746
14.9749
14.9754
14.9759
14.9763
14.9768
14.9772
14.9775
14.9741
14.9741
14.9744
14.9748
14.9753
14.9757
14.9762
14.9767
14.9771
14.9775
14.9736
14.9738
14.9742
14.9747
14.9751
14.9756
14.9761
14.9766
14.977
14.9775
14.6053
14.6061
14.6063
14.6066
14.6068
14.6071
14.6073
14.6075
14.6077
14.6083
14.6047
14.6055
14.6059
14.6063
14.6067
14.6071
14.6074
14.6077
14.608
14.6085
14.6047
14.6054
14.6058
14.6062
14.6066
14.607
14.6074
14.6077
14.608
14.6084
14.6047
14.6052
14.6057
14.6061
14.6065
14.6069
14.6073
14.6077
14.608
14.6083
14.6048
14.6052
14.6056
14.606
14.6064
14.6068
14.6072
14.6076
14.6079
14.6082
14.6048
14.6051
14.6054
14.6059
14.6063
14.6067
14.6071
14.6075
14.6078
14.6081
14.6047
14.605
14.6053
14.6057
14.6062
14.6066
14.607
14.6074
14.6078
14.608
14.6047
14.6049
14.6052
14.6056
14.6061
14.6065
14.6069
14.6073
14.6077
14.608
14.6046
14.6049
14.6052
14.6055
14.606
14.6064
14.6068
14.6072
14.6075
14.6079
14.6044
14.6048
14.6051
14.6055
14.6059
14.6063
14.6067
14.6071
14.6074
14.6079
14.2382
14.2387
14.2388
14.239
14.2391
14.2392
14.2393
14.2394
14.2395
14.24
14.2378
14.2383
14.2386
14.2388
14.2391
14.2393
14.2395
14.2397
14.2399
14.2402
14.2379
14.2382
14.2385
14.2388
14.239
14.2393
14.2395
14.2397
14.24
14.2402
14.2379
14.2382
14.2385
14.2388
14.239
14.2392
14.2395
14.2397
14.24
14.2402
14.238
14.2382
14.2385
14.2388
14.239
14.2392
14.2394
14.2397
14.24
14.2401
14.2381
14.2383
14.2385
14.2387
14.239
14.2392
14.2394
14.2397
14.2399
14.2401
14.2382
14.2383
14.2385
14.2387
14.239
14.2392
14.2395
14.2397
14.2399
14.24
14.2383
14.2384
14.2386
14.2388
14.239
14.2392
14.2394
14.2396
14.2398
14.24
14.2384
14.2385
14.2387
14.2388
14.239
14.2392
14.2394
14.2396
14.2398
14.24
14.2384
14.2387
14.2388
14.2389
14.2391
14.2392
14.2394
14.2395
14.2397
14.2399
13.8713
13.8714
13.8714
13.8714
13.8713
13.8713
13.8712
13.8712
13.8711
13.8712
13.8713
13.8714
13.8714
13.8714
13.8714
13.8714
13.8713
13.8713
13.8713
13.8713
13.8714
13.8714
13.8714
13.8714
13.8714
13.8714
13.8714
13.8714
13.8714
13.8714
13.8714
13.8715
13.8715
13.8715
13.8715
13.8714
13.8714
13.8714
13.8714
13.8714
13.8716
13.8716
13.8716
13.8716
13.8715
13.8714
13.8714
13.8714
13.8714
13.8713
13.8717
13.8717
13.8717
13.8716
13.8716
13.8715
13.8714
13.8714
13.8713
13.8713
13.8719
13.8718
13.8718
13.8717
13.8716
13.8715
13.8714
13.8714
13.8713
13.8712
13.8721
13.872
13.8719
13.8718
13.8717
13.8715
13.8714
13.8713
13.8712
13.871
13.8722
13.8721
13.872
13.8718
13.8717
13.8715
13.8714
13.8713
13.8711
13.8709
13.8723
13.8722
13.8721
13.8719
13.8718
13.8716
13.8714
13.8712
13.8711
13.8709
13.5053
13.505
13.5049
13.5048
13.5046
13.5045
13.5044
13.5042
13.5042
13.504
13.5055
13.5052
13.5051
13.5049
13.5047
13.5046
13.5044
13.5042
13.5041
13.5038
13.5056
13.5054
13.5052
13.505
13.5048
13.5046
13.5044
13.5042
13.5041
13.5038
13.5057
13.5055
13.5053
13.5051
13.5049
13.5046
13.5044
13.5042
13.504
13.5038
13.5059
13.5056
13.5054
13.5052
13.5049
13.5046
13.5044
13.5042
13.5039
13.5037
13.506
13.5058
13.5055
13.5053
13.505
13.5047
13.5044
13.5041
13.5038
13.5036
13.5062
13.5059
13.5057
13.5054
13.505
13.5047
13.5044
13.504
13.5037
13.5034
13.5064
13.5061
13.5058
13.5055
13.5051
13.5047
13.5043
13.504
13.5036
13.5032
13.5067
13.5062
13.5059
13.5055
13.5051
13.5047
13.5043
13.5039
13.5035
13.503
13.5067
13.5062
13.5059
13.5056
13.5052
13.5048
13.5044
13.504
13.5036
13.503
13.1392
13.139
13.1389
13.1387
13.1387
13.1386
13.1386
13.1385
13.1385
13.1383
13.1395
13.1393
13.1391
13.1389
13.1387
13.1386
13.1385
13.1383
13.1382
13.1379
13.1397
13.1395
13.1392
13.139
13.1388
13.1386
13.1384
13.1382
13.138
13.1378
13.1399
13.1396
13.1393
13.1391
13.1388
13.1386
13.1384
13.1381
13.1379
13.1376
13.14
13.1397
13.1394
13.1391
13.1389
13.1386
13.1383
13.138
13.1377
13.1374
13.1401
13.1399
13.1396
13.1392
13.1389
13.1386
13.1382
13.1379
13.1375
13.1372
13.1403
13.14
13.1397
13.1393
13.1389
13.1385
13.1381
13.1377
13.1374
13.137
13.1405
13.1401
13.1397
13.1393
13.1389
13.1385
13.138
13.1376
13.1372
13.1367
13.1407
13.1401
13.1397
13.1393
13.1389
13.1385
13.138
13.1376
13.1371
13.1365
13.1405
13.1399
13.1396
13.1393
13.1389
13.1385
13.1381
13.1376
13.1372
13.1364
12.773
12.7731
12.773
12.7731
12.7732
12.7733
12.7734
12.7736
12.7737
12.7738
12.7732
12.7732
12.7732
12.7732
12.7732
12.7733
12.7733
12.7734
12.7734
12.7733
12.7734
12.7734
12.7733
12.7733
12.7733
12.7733
12.7733
12.7733
12.7732
12.7731
12.7736
12.7736
12.7735
12.7734
12.7733
12.7733
12.7732
12.7732
12.7731
12.773
12.7738
12.7737
12.7736
12.7735
12.7733
12.7733
12.7732
12.7731
12.7729
12.7728
12.774
12.7738
12.7737
12.7736
12.7734
12.7733
12.7731
12.7729
12.7728
12.7726
12.7741
12.7739
12.7738
12.7736
12.7735
12.7732
12.773
12.7728
12.7726
12.7725
12.7742
12.774
12.7738
12.7737
12.7735
12.7732
12.773
12.7728
12.7726
12.7723
12.7743
12.774
12.7738
12.7736
12.7734
12.7732
12.773
12.7727
12.7725
12.7723
12.7742
12.7737
12.7737
12.7735
12.7734
12.7732
12.773
12.7728
12.7725
12.772
12.407
12.4075
12.4076
12.4078
12.408
12.4083
12.4085
12.4088
12.409
12.4094
12.4071
12.4075
12.4077
12.4079
12.4081
12.4084
12.4086
12.4088
12.409
12.4092
12.4074
12.4077
12.4079
12.4081
12.4083
12.4085
12.4087
12.4089
12.409
12.4092
12.4077
12.4079
12.408
12.4082
12.4084
12.4086
12.4088
12.4089
12.4091
12.4092
12.4079
12.4081
12.4082
12.4083
12.4085
12.4087
12.4088
12.409
12.4091
12.4092
12.4081
12.4082
12.4084
12.4085
12.4087
12.4088
12.4089
12.409
12.4091
12.4092
12.4083
12.4084
12.4085
12.4086
12.4088
12.4089
12.409
12.4091
12.4092
12.4093
12.4084
12.4084
12.4086
12.4087
12.4088
12.4089
12.409
12.4092
12.4093
12.4094
12.4084
12.4085
12.4086
12.4087
12.4089
12.409
12.4091
12.4092
12.4094
12.4096
12.4084
12.4085
12.4086
12.4087
12.4089
12.4091
12.4092
12.4092
12.4092
12.4094
12.0422
12.0427
12.0429
12.0432
12.0434
12.0437
12.0439
12.0442
12.0444
12.045
12.0423
12.0428
12.043
12.0433
12.0436
12.0439
12.0443
12.0445
12.0448
12.0453
12.0426
12.043
12.0432
12.0435
12.0439
12.0442
12.0445
12.0449
12.0451
12.0455
12.0429
12.0432
12.0435
12.0438
12.0441
12.0445
12.0448
12.0451
12.0454
12.0457
12.0431
12.0434
12.0437
12.0441
12.0444
12.0447
12.0451
12.0454
12.0457
12.046
12.0434
12.0437
12.044
12.0444
12.0447
12.045
12.0453
12.0457
12.046
12.0463
12.0435
12.0439
12.0442
12.0446
12.0449
12.0453
12.0456
12.046
12.0463
12.0466
12.0437
12.044
12.0444
12.0448
12.0451
12.0455
12.0459
12.0462
12.0465
12.0469
12.0437
12.0442
12.0446
12.0449
12.0453
12.0457
12.0461
12.0464
12.0468
12.0473
12.044
12.0446
12.0449
12.0452
12.0455
12.0459
12.0462
12.0465
12.0467
12.0473
11.6795
11.6797
11.6798
11.6799
11.68
11.6801
11.6802
11.6803
11.6805
11.681
11.6797
11.6798
11.6799
11.6801
11.6803
11.6804
11.6806
11.6808
11.6811
11.6815
11.6798
11.6799
11.6801
11.6803
11.6805
11.6808
11.681
11.6812
11.6815
11.6818
11.6799
11.6801
11.6803
11.6806
11.6808
11.6811
11.6813
11.6816
11.6819
11.6822
11.68
11.6803
11.6805
11.6808
11.6811
11.6814
11.6817
11.682
11.6823
11.6825
11.6802
11.6805
11.6808
11.6811
11.6814
11.6817
11.682
11.6823
11.6826
11.6828
11.6803
11.6807
11.681
11.6814
11.6817
11.682
11.6823
11.6826
11.6829
11.6832
11.6804
11.6809
11.6812
11.6816
11.6819
11.6823
11.6826
11.6829
11.6832
11.6835
11.6804
11.6811
11.6815
11.6818
11.6822
11.6825
11.6829
11.6832
11.6834
11.6839
11.681
11.6818
11.6819
11.6822
11.6825
11.6827
11.683
11.6832
11.6834
11.684
11.3187
11.3183
11.3182
11.318
11.3179
11.3177
11.3176
11.3176
11.3177
11.3176
11.3188
11.3184
11.3183
11.3182
11.318
11.3179
11.3178
11.3178
11.3179
11.3177
11.3186
11.3184
11.3183
11.3183
11.3182
11.3181
11.3181
11.3181
11.3182
11.3181
11.3185
11.3184
11.3184
11.3184
11.3184
11.3183
11.3184
11.3184
11.3185
11.3185
11.3184
11.3184
11.3184
11.3185
11.3185
11.3185
11.3186
11.3186
11.3187
11.3187
11.3183
11.3184
11.3185
11.3186
11.3187
11.3187
11.3188
11.3188
11.3189
11.3189
11.3182
11.3184
11.3186
11.3187
11.3188
11.3189
11.319
11.319
11.3191
11.3191
11.3182
11.3185
11.3187
11.3188
11.319
11.3191
11.3191
11.3192
11.3192
11.3193
11.3182
11.3187
11.3188
11.319
11.3191
11.3192
11.3193
11.3193
11.3193
11.3195
11.3186
11.3191
11.3192
11.3193
11.3193
11.3193
11.3193
11.3193
11.3191
11.3194
10.9586
10.9578
10.9574
10.9569
10.9566
10.9562
10.956
10.9558
10.9558
10.955
10.9585
10.9578
10.9574
10.9569
10.9565
10.9561
10.9558
10.9555
10.9552
10.9544
10.9581
10.9576
10.9572
10.9569
10.9565
10.9561
10.9558
10.9555
10.9552
10.9547
10.9577
10.9574
10.957
10.9567
10.9564
10.956
10.9557
10.9555
10.9552
10.9548
10.9573
10.9571
10.9568
10.9566
10.9563
10.956
10.9557
10.9554
10.9552
10.9549
10.957
10.9568
10.9566
10.9564
10.9562
10.9559
10.9557
10.9554
10.9552
10.955
10.9567
10.9566
10.9565
10.9563
10.9561
10.9559
10.9556
10.9554
10.9551
10.955
10.9566
10.9565
10.9563
10.9562
10.956
10.9558
10.9556
10.9553
10.955
10.9549
10.9564
10.9564
10.9563
10.9561
10.956
10.9558
10.9555
10.9553
10.955
10.955
10.9562
10.9563
10.9562
10.9562
10.956
10.9557
10.9554
10.9551
10.9546
10.9546
10.5973
10.5965
10.596
10.5955
10.5951
10.5947
10.5945
10.5942
10.5941
10.593
10.5971
10.5964
10.5959
10.5954
10.5949
10.5945
10.594
10.5936
10.5931
10.592
10.5967
10.5962
10.5958
10.5953
10.5947
10.5942
10.5938
10.5933
10.5929
10.5921
10.5963
10.5959
10.5955
10.595
10.5945
10.594
10.5935
10.5931
10.5927
10.5921
10.5959
10.5956
10.5952
10.5947
10.5942
10.5938
10.5934
10.5929
10.5925
10.5921
10.5956
10.5952
10.5948
10.5944
10.594
10.5936
10.5932
10.5927
10.5923
10.592
10.5952
10.5949
10.5945
10.5942
10.5938
10.5934
10.593
10.5926
10.5922
10.592
10.5949
10.5946
10.5943
10.5939
10.5936
10.5932
10.5928
10.5924
10.592
10.5919
10.5947
10.5943
10.594
10.5937
10.5934
10.593
10.5926
10.5923
10.5919
10.5919
10.5941
10.5938
10.5937
10.5935
10.5932
10.5929
10.5924
10.592
10.5914
10.5914
10.2342
10.2336
10.2332
10.2329
10.2326
10.2323
10.232
10.2318
10.2317
10.2307
10.2339
10.2336
10.2332
10.2328
10.2324
10.232
10.2316
10.2312
10.2308
10.2298
10.2338
10.2335
10.2331
10.2327
10.2322
10.2318
10.2313
10.2309
10.2305
10.2298
10.2336
10.2333
10.233
10.2325
10.232
10.2315
10.2311
10.2307
10.2303
10.2298
10.2334
10.2331
10.2327
10.2323
10.2318
10.2314
10.231
10.2305
10.2302
10.2298
10.2333
10.2329
10.2325
10.2321
10.2317
10.2313
10.2309
10.2304
10.2301
10.2298
10.2331
10.2327
10.2323
10.2319
10.2316
10.2312
10.2307
10.2303
10.23
10.2299
10.2329
10.2325
10.2321
10.2317
10.2314
10.231
10.2306
10.2302
10.2299
10.2299
10.2326
10.2322
10.2319
10.2315
10.2312
10.2309
10.2305
10.2302
10.2299
10.2301
10.232
10.2318
10.2316
10.2313
10.2311
10.2308
10.2304
10.23
10.2295
10.2296
9.86936
9.8691
9.86906
9.86895
9.86881
9.86864
9.8685
9.86832
9.86829
9.86767
9.86955
9.86939
9.86929
9.86912
9.8689
9.86865
9.8684
9.86814
9.8679
9.86728
9.86971
9.86961
9.86948
9.86927
9.86901
9.86872
9.86844
9.86817
9.86793
9.8675
9.86995
9.86984
9.86967
9.86943
9.86912
9.86881
9.86853
9.86825
9.868
9.86767
9.87024
9.87009
9.86988
9.86959
9.86926
9.86897
9.86868
9.86839
9.86814
9.86793
9.87054
9.87035
9.87009
9.86978
9.86949
9.8692
9.86887
9.86856
9.86832
9.86821
9.87079
9.87059
9.8703
9.86998
9.86969
9.86939
9.86905
9.86874
9.86852
9.86853
9.87094
9.87076
9.87047
9.87015
9.86985
9.86954
9.86921
9.86892
9.86872
9.86883
9.87098
9.87087
9.87059
9.87029
9.86999
9.86969
9.86939
9.86912
9.86893
9.86922
9.87106
9.87104
9.87073
9.87043
9.87013
9.86982
9.86948
9.86916
9.86878
9.869
9.50414
9.5035
9.50384
9.50393
9.50391
9.50377
9.50362
9.50345
9.50344
9.50287
9.50538
9.5047
9.50464
9.50453
9.50436
9.50413
9.5039
9.50368
9.50354
9.50308
9.50566
9.50531
9.50521
9.50508
9.50488
9.50463
9.50437
9.50414
9.50399
9.50372
9.50626
9.50602
9.50589
9.5057
9.50548
9.50521
9.50493
9.50468
9.5045
9.5043
9.507
9.50684
9.50664
9.50639
9.5061
9.50584
9.50554
9.50526
9.50506
9.50492
9.50785
9.50772
9.50745
9.50712
9.50677
9.50648
9.50615
9.50585
9.50563
9.50554
9.50865
9.50858
9.50827
9.50787
9.50747
9.5071
9.50674
9.50642
9.50619
9.50615
9.50937
9.50937
9.50903
9.5086
9.50814
9.50771
9.50731
9.50696
9.50671
9.50669
9.5099
9.51008
9.50971
9.50924
9.50874
9.50826
9.50782
9.50745
9.50717
9.5072
9.51127
9.51127
9.51056
9.50992
9.50929
9.50872
9.5082
9.50777
9.50738
9.50735
9.14014
9.13848
9.13896
9.13908
9.13911
9.13896
9.13876
9.13851
9.13836
9.13747
9.14258
9.1408
9.14047
9.14021
9.13993
9.1396
9.13927
9.13896
9.13875
9.13822
9.14283
9.14178
9.14142
9.14113
9.14083
9.14049
9.14011
9.13977
9.13954
9.13925
9.14358
9.14285
9.1425
9.14217
9.14188
9.14153
9.14111
9.14073
9.14046
9.14023
9.14446
9.14404
9.14368
9.14327
9.14292
9.1426
9.14215
9.14174
9.14143
9.14122
9.14555
9.14534
9.14495
9.14445
9.14395
9.14356
9.14314
9.14272
9.1424
9.14217
9.14667
9.14665
9.14626
9.1457
9.14509
9.14455
9.14409
9.14365
9.1433
9.14301
9.14783
9.14793
9.14753
9.14692
9.14624
9.1456
9.14502
9.14452
9.14411
9.1437
9.14887
9.14913
9.14868
9.14801
9.14726
9.14653
9.14586
9.14529
9.14482
9.14415
9.1513
9.15104
9.15006
9.14914
9.14818
9.14732
9.14659
9.14602
9.14568
9.14494
8.77791
8.77549
8.77562
8.77547
8.77544
8.7753
8.7751
8.77479
8.77444
8.77341
8.78047
8.778
8.77725
8.7767
8.77628
8.77588
8.77549
8.77513
8.77487
8.77443
8.78048
8.77889
8.77817
8.77762
8.77717
8.77674
8.77628
8.77586
8.7756
8.77539
8.78091
8.77977
8.77912
8.77858
8.77819
8.7778
8.7773
8.77683
8.77653
8.77636
8.78131
8.78065
8.78009
8.77953
8.77914
8.77884
8.77836
8.77787
8.77754
8.77734
8.78188
8.7816
8.78114
8.78057
8.78001
8.77967
8.7793
8.77888
8.77855
8.77827
8.78258
8.7826
8.78226
8.78172
8.78111
8.78061
8.78022
8.77983
8.77949
8.77903
8.78348
8.78365
8.78339
8.78288
8.78226
8.78167
8.78118
8.78074
8.78035
8.77965
8.78445
8.78463
8.78439
8.7839
8.78327
8.78263
8.78206
8.78156
8.78112
8.77987
8.78648
8.78601
8.78544
8.78484
8.78413
8.78346
8.78296
8.7826
8.78263
8.78137
8.41494
8.41321
8.41299
8.4127
8.41272
8.41279
8.4128
8.41267
8.41232
8.41178
8.41598
8.41438
8.41377
8.41333
8.4131
8.41297
8.41285
8.41273
8.41267
8.4128
8.4157
8.41467
8.41412
8.41372
8.41349
8.41334
8.41316
8.41299
8.41295
8.41314
8.41555
8.41483
8.41438
8.41405
8.41392
8.41384
8.41366
8.41347
8.41341
8.41356
8.41517
8.41484
8.41455
8.41428
8.4142
8.4143
8.41417
8.41401
8.41394
8.41401
8.41482
8.41482
8.41472
8.41454
8.41439
8.4145
8.41457
8.41451
8.41449
8.41444
8.41463
8.41486
8.41497
8.41493
8.41485
8.41486
8.41495
8.41499
8.41499
8.41473
8.41468
8.41499
8.41525
8.41534
8.41535
8.41536
8.41542
8.41546
8.41547
8.41496
8.41502
8.41509
8.41545
8.41565
8.41574
8.41579
8.41585
8.41589
8.4159
8.4148
8.41521
8.41482
8.41534
8.41573
8.41599
8.41618
8.41646
8.41674
8.41742
8.41642
8.0504
8.05058
8.05032
8.05023
8.05049
8.05094
8.05137
8.0517
8.05171
8.05226
8.04899
8.04942
8.04951
8.04965
8.04998
8.05044
8.0509
8.05132
8.05176
8.05279
8.04838
8.04873
8.0489
8.04911
8.04947
8.04992
8.05036
8.05078
8.05124
8.05207
8.04764
8.04795
8.04818
8.04847
8.0489
8.04941
8.04986
8.0503
8.05077
8.05148
8.04664
8.04697
8.0473
8.04767
8.04817
8.04886
8.04937
8.04984
8.05033
8.05089
8.04553
8.04591
8.04636
8.04682
8.04734
8.0481
8.04881
8.04939
8.04992
8.05036
8.04454
8.04489
8.04547
8.04608
8.04674
8.04749
8.04826
8.04892
8.04951
8.04979
8.0437
8.04396
8.04466
8.04541
8.04619
8.04698
8.04778
8.04851
8.04915
8.04931
8.04325
8.04307
8.04386
8.04474
8.04564
8.04651
8.04737
8.04813
8.04882
8.04858
8.04146
8.04118
8.04253
8.04377
8.045
8.04612
8.04723
8.04822
8.04948
8.04942
7.68227
7.68482
7.68506
7.68566
7.68645
7.68749
7.68853
7.68954
7.69021
7.69204
7.67884
7.68156
7.68273
7.68384
7.68502
7.6863
7.68755
7.68872
7.68979
7.69166
7.67812
7.68005
7.68125
7.68242
7.68365
7.68492
7.6862
7.6874
7.68848
7.68991
7.67714
7.67863
7.67978
7.68098
7.68219
7.68344
7.68471
7.68593
7.68703
7.68826
7.67607
7.67713
7.67823
7.67942
7.68066
7.68199
7.68321
7.68443
7.68553
7.68657
7.67484
7.67558
7.67661
7.67779
7.67905
7.68043
7.68175
7.68296
7.68406
7.68499
7.67366
7.67409
7.67505
7.67624
7.67757
7.67897
7.6803
7.68153
7.68264
7.68351
7.67245
7.67267
7.67359
7.6748
7.67615
7.67755
7.67892
7.68019
7.68136
7.68223
7.67155
7.67134
7.67226
7.67348
7.67488
7.6763
7.6777
7.67898
7.68018
7.68094
7.66896
7.66895
7.67045
7.67198
7.67366
7.67526
7.6768
7.67815
7.67957
7.68047
7.314
7.31808
7.319
7.32028
7.32148
7.32286
7.32427
7.32575
7.327
7.32957
7.30982
7.31381
7.31576
7.31758
7.31935
7.32115
7.32292
7.3246
7.32609
7.32824
7.30895
7.31177
7.31366
7.3155
7.31732
7.31915
7.32101
7.32277
7.32429
7.32597
7.30785
7.31
7.31174
7.31352
7.31527
7.31699
7.31884
7.32062
7.32218
7.32367
7.3069
7.30836
7.30989
7.31161
7.31332
7.31496
7.31665
7.31838
7.31992
7.32128
7.30587
7.30677
7.30807
7.30966
7.31136
7.31303
7.31462
7.31623
7.31771
7.31901
7.30481
7.30526
7.30632
7.30776
7.3094
7.31108
7.31266
7.31419
7.31562
7.31695
7.30362
7.30384
7.30473
7.30603
7.30758
7.3092
7.31078
7.3123
7.31373
7.31517
7.30253
7.30257
7.30336
7.30456
7.30603
7.3076
7.30915
7.31062
7.31203
7.3137
7.30039
7.30081
7.3019
7.30317
7.30471
7.3063
7.30779
7.30911
7.31026
7.31194
6.94331
6.94711
6.94852
6.95009
6.95128
6.95246
6.95366
6.95498
6.95631
6.95832
6.9401
6.94364
6.94568
6.94756
6.94925
6.95087
6.95246
6.95397
6.95525
6.9566
6.93911
6.94169
6.94362
6.9455
6.94726
6.94898
6.95073
6.95239
6.95376
6.95494
6.93801
6.94005
6.94181
6.94358
6.94526
6.94689
6.94868
6.95041
6.95187
6.95305
6.93728
6.93869
6.9402
6.94189
6.94352
6.94495
6.94659
6.94828
6.94976
6.95098
6.93659
6.93747
6.9387
6.94024
6.94186
6.94329
6.9447
6.94623
6.94765
6.94893
6.93584
6.93634
6.93727
6.93858
6.94008
6.94154
6.94292
6.94432
6.94567
6.94712
6.93495
6.93529
6.93599
6.9371
6.93844
6.93985
6.94122
6.94256
6.94386
6.94555
6.93395
6.93445
6.93501
6.93594
6.93713
6.93844
6.93974
6.94101
6.94226
6.94453
6.933
6.93395
6.9344
6.93515
6.93617
6.9373
6.93833
6.93925
6.93978
6.94196
6.57404
6.57543
6.57655
6.57762
6.57825
6.57866
6.5791
6.57965
6.58046
6.58072
6.57309
6.57428
6.57538
6.57641
6.5772
6.57786
6.57849
6.57909
6.57951
6.57917
6.5722
6.57318
6.57419
6.57519
6.57605
6.57684
6.57765
6.57844
6.579
6.57897
6.57134
6.57221
6.57312
6.57404
6.57486
6.57564
6.57656
6.57747
6.57817
6.57845
6.57087
6.5715
6.57226
6.57313
6.57393
6.57452
6.5754
6.57635
6.57716
6.57773
6.57057
6.57096
6.57153
6.57232
6.57315
6.57374
6.5744
6.57527
6.5761
6.57692
6.57023
6.57048
6.57083
6.57145
6.57217
6.57285
6.57351
6.57429
6.57511
6.57624
6.56983
6.57007
6.57025
6.5707
6.57131
6.57198
6.57265
6.57339
6.57418
6.57562
6.56918
6.56987
6.56994
6.57023
6.5707
6.57129
6.57192
6.5726
6.57335
6.57559
6.56959
6.57071
6.57036
6.57032
6.57045
6.57075
6.57098
6.57126
6.57109
6.57326
6.19985
6.19824
6.1984
6.19848
6.19833
6.19795
6.19756
6.19715
6.19707
6.19551
6.20131
6.19968
6.19931
6.19904
6.19866
6.19815
6.19762
6.19708
6.19642
6.1945
6.20098
6.19989
6.19951
6.19921
6.19882
6.19836
6.1979
6.19745
6.19688
6.19555
6.20074
6.2
6.19965
6.19933
6.19894
6.1985
6.19813
6.19778
6.19734
6.19644
6.2007
6.20022
6.19988
6.19957
6.19918
6.19865
6.19835
6.19808
6.19777
6.19731
6.20087
6.20054
6.20018
6.19988
6.19957
6.19904
6.19863
6.19838
6.19816
6.19805
6.20103
6.20087
6.20047
6.20012
6.19975
6.19933
6.19895
6.1987
6.19854
6.19878
6.20123
6.20122
6.20077
6.20035
6.19995
6.19957
6.19923
6.19898
6.19884
6.19935
6.20113
6.20169
6.2012
6.20071
6.20024
6.19983
6.19947
6.19924
6.1991
6.20031
6.2025
6.2034
6.20239
6.20157
6.20074
6.20005
6.19937
6.19888
6.19806
6.19927
5.82919
5.82568
5.82459
5.82358
5.8227
5.82173
5.82075
5.81963
5.81872
5.81658
5.83206
5.82858
5.82677
5.82524
5.82381
5.8224
5.82104
5.81969
5.81835
5.81609
5.83263
5.82989
5.82807
5.82644
5.82487
5.82332
5.82182
5.82041
5.81906
5.81723
5.83317
5.83094
5.82921
5.82757
5.82597
5.82437
5.82283
5.8214
5.82006
5.81851
5.83361
5.83192
5.83031
5.82869
5.82709
5.82546
5.82398
5.82256
5.82128
5.82004
5.83416
5.83289
5.83142
5.82986
5.82833
5.8267
5.82519
5.82379
5.82257
5.82157
5.83473
5.83384
5.83251
5.83102
5.82944
5.82786
5.82638
5.82503
5.82385
5.82304
5.83541
5.83476
5.83352
5.83209
5.83054
5.829
5.82753
5.8262
5.82504
5.8243
5.83585
5.83567
5.83449
5.83311
5.83158
5.83005
5.82859
5.82732
5.82618
5.82572
5.8374
5.83743
5.83593
5.83437
5.83264
5.83096
5.8294
5.82812
5.82678
5.82635
5.45061
5.44766
5.44574
5.44408
5.4428
5.44161
5.44038
5.43898
5.43763
5.43614
5.45403
5.45087
5.44843
5.44628
5.44438
5.44262
5.44092
5.43928
5.43776
5.43618
5.45623
5.45326
5.4507
5.44832
5.44611
5.444
5.44196
5.44006
5.43835
5.43673
5.4581
5.45537
5.45282
5.45034
5.44798
5.44566
5.44338
5.44124
5.43935
5.43764
5.45952
5.45721
5.45479
5.45227
5.44983
5.44743
5.44503
5.44271
5.44067
5.43891
5.46074
5.45887
5.45665
5.45417
5.45169
5.44921
5.44673
5.4443
5.44215
5.44032
5.46187
5.4604
5.4584
5.45604
5.45348
5.4509
5.44837
5.4459
5.44367
5.4417
5.46299
5.46175
5.45994
5.45771
5.45519
5.45257
5.44997
5.44748
5.44516
5.44297
5.46393
5.46285
5.4612
5.45911
5.45668
5.45409
5.45151
5.44905
5.44671