/*--------------------------------*- C++ -*----------------------------------*\
| =========                 |                                                 |
| \\      /  F ield         | OpenFOAM: The Open Source CFD Toolbox           |
|  \\    /   O peration     | Version:  2406                                  |
|   \\  /    A nd           | Website:  www.openfoam.com                      |
|    \\/     M anipulation  |                                                 |
\*---------------------------------------------------------------------------*/
FoamFile
{
    version     2.0;
    format      ascii;
    arch        "LSB;label=32;scalar=64";
    class       surfaceScalarField;
    location    "0.8";
    object      phi;
}
// * * * * * * * * * * * * * * * * * * * * * * * * * * * * * * * * * * * * * //

dimensions      [0 3 -1 0 0 0 0];

oriented        oriented;

internalField   nonuniform List<scalar> 
73500
(
4.64707e-05
4.6456e-05
5.70513e-05
-5.14954e-05
-5.14846e-05
3.77064e-05
4.71226e-05
6.48981e-05
-5.23218e-05
2.6514e-05
4.74942e-05
7.06836e-05
-5.30465e-05
1.3665e-05
4.76141e-05
7.45144e-05
-5.33123e-05
1.57499e-08
4.76476e-05
7.64207e-05
-5.34304e-05
-1.36341e-05
4.76472e-05
7.64214e-05
-5.343e-05
-2.64851e-05
4.76128e-05
7.45165e-05
-5.33112e-05
-3.76807e-05
4.74923e-05
7.06872e-05
-5.30446e-05
-4.64494e-05
4.71206e-05
6.4903e-05
-5.23202e-05
4.64542e-05
5.70574e-05
-5.14788e-05
-5.14831e-05
4.71366e-05
3.76886e-05
6.48976e-05
-5.23322e-05
3.80109e-05
3.79941e-05
7.2835e-05
2.65156e-05
3.8086e-05
7.82688e-05
1.35964e-05
3.80648e-05
8.17143e-05
1.44803e-08
3.80313e-05
8.33917e-05
-1.3568e-05
3.80309e-05
8.33923e-05
-2.64888e-05
3.80636e-05
8.1716e-05
-3.79868e-05
3.80842e-05
7.82717e-05
-4.71163e-05
3.7992e-05
7.28391e-05
3.76869e-05
6.49031e-05
-5.23161e-05
4.75075e-05
2.64939e-05
7.06825e-05
-5.3056e-05
3.81023e-05
2.64965e-05
7.82682e-05
2.64402e-05
2.64216e-05
8.33101e-05
1.351e-05
2.63255e-05
8.64218e-05
1.37201e-08
2.62629e-05
8.79087e-05
-1.34831e-05
2.62625e-05
8.79092e-05
-2.64147e-05
2.63246e-05
8.64233e-05
-3.80795e-05
2.64201e-05
8.33126e-05
-4.74884e-05
2.64948e-05
7.82719e-05
2.64924e-05
7.06875e-05
-5.30409e-05
4.76272e-05
1.36434e-05
7.45125e-05
-5.33218e-05
3.8081e-05
1.35758e-05
8.1713e-05
2.6344e-05
1.34898e-05
8.64211e-05
1.34313e-05
1.34113e-05
8.92732e-05
1.33073e-08
1.3365e-05
9.06161e-05
-1.34052e-05
1.33649e-05
9.06166e-05
-2.63194e-05
1.34107e-05
8.92746e-05
-3.8059e-05
1.34889e-05
8.64235e-05
-4.76089e-05
1.35746e-05
8.17164e-05
1.36422e-05
7.45171e-05
-5.33072e-05
4.76608e-05
-6.47862e-09
7.6418e-05
-5.34399e-05
3.80477e-05
-7.07881e-09
8.33897e-05
2.62815e-05
-7.46419e-09
8.79074e-05
1.33851e-05
-7.65222e-09
9.06155e-05
1.30955e-08
-7.71042e-09
9.18802e-05
-1.33594e-05
-7.72176e-09
9.18806e-05
-2.62573e-05
-7.72524e-09
9.06168e-05
-3.80262e-05
-7.68328e-09
8.79097e-05
-4.76431e-05
-7.52189e-09
8.3393e-05
-7.25248e-09
7.64224e-05
-5.34257e-05
4.76607e-05
-1.3656e-05
7.64177e-05
-5.34397e-05
3.80476e-05
-1.35896e-05
8.33895e-05
2.62814e-05
-1.35044e-05
8.79073e-05
1.33851e-05
-1.34263e-05
9.06154e-05
1.30486e-08
-1.33802e-05
9.188e-05
-1.33595e-05
-1.338e-05
9.18805e-05
-2.62575e-05
-1.34258e-05
9.06167e-05
-3.80264e-05
-1.35039e-05
8.79095e-05
-4.76433e-05
-1.35894e-05
8.33928e-05
-1.36564e-05
7.64221e-05
-5.34258e-05
4.76267e-05
-2.65057e-05
7.45119e-05
-5.33212e-05
3.80807e-05
-2.65096e-05
8.17124e-05
2.63439e-05
-2.64354e-05
8.64206e-05
1.34313e-05
-2.63396e-05
8.92727e-05
1.31806e-08
-2.6277e-05
9.06156e-05
-1.34055e-05
-2.62766e-05
9.06161e-05
-2.63198e-05
-2.63387e-05
8.92741e-05
-3.80595e-05
-2.64342e-05
8.64229e-05
-4.76094e-05
-2.65087e-05
8.17158e-05
-2.65058e-05
7.45163e-05
-5.33075e-05
4.75067e-05
-3.76991e-05
7.06814e-05
-5.3055e-05
3.81019e-05
-3.80059e-05
7.82672e-05
2.644e-05
-3.80984e-05
8.33091e-05
1.35099e-05
-3.80773e-05
8.64208e-05
1.35511e-08
-3.80438e-05
8.79078e-05
-1.34834e-05
-3.80433e-05
8.79083e-05
-2.64153e-05
-3.8076e-05
8.64223e-05
-3.80802e-05
-3.80966e-05
8.33116e-05
-4.74891e-05
-3.80044e-05
7.82708e-05
-3.76989e-05
7.06862e-05
-5.30413e-05
4.71355e-05
-4.64649e-05
6.48962e-05
-5.23304e-05
3.80104e-05
-4.71326e-05
7.28336e-05
2.65153e-05
-4.75045e-05
7.82674e-05
1.35962e-05
-4.76243e-05
8.17129e-05
1.42017e-08
-4.76578e-05
8.33903e-05
-1.35684e-05
-4.76572e-05
8.33909e-05
-2.64893e-05
-4.76228e-05
8.17146e-05
-3.79875e-05
-4.75023e-05
7.82702e-05
-4.7117e-05
-4.71306e-05
7.28375e-05
-4.64642e-05
6.49013e-05
-5.23166e-05
4.64696e-05
5.70496e-05
-5.14911e-05
-5.14932e-05
3.77057e-05
6.48964e-05
-5.23286e-05
2.65134e-05
7.06818e-05
-5.3053e-05
1.36644e-05
7.45125e-05
-5.33188e-05
1.5264e-08
7.64188e-05
-5.34367e-05
-1.36345e-05
7.64195e-05
-5.34362e-05
-2.64854e-05
7.45146e-05
-5.33174e-05
-3.76809e-05
7.06851e-05
-5.30509e-05
-4.64495e-05
6.49009e-05
-5.23264e-05
5.70551e-05
-5.14791e-05
-5.14891e-05
1.74995e-05
1.74349e-05
5.58935e-05
-1.69141e-05
-1.68662e-05
1.56669e-05
1.94922e-05
6.57906e-05
-1.85557e-05
1.17028e-05
2.08911e-05
7.35867e-05
-1.98339e-05
6.27318e-06
2.1807e-05
7.8897e-05
-2.07638e-05
7.53353e-08
2.22495e-05
8.1575e-05
-2.12098e-05
-6.12598e-06
2.2249e-05
8.15796e-05
-2.12096e-05
-1.1566e-05
2.18056e-05
7.89108e-05
-2.07635e-05
-1.55476e-05
2.08895e-05
7.36095e-05
-1.98339e-05
-1.74032e-05
1.94921e-05
6.58216e-05
-1.85587e-05
1.7437e-05
5.59309e-05
-1.68452e-05
-1.68711e-05
1.95523e-05
1.55896e-05
6.57882e-05
-1.86009e-05
1.75356e-05
1.74644e-05
7.68762e-05
1.30664e-05
1.86861e-05
8.49397e-05
6.97272e-06
1.94464e-05
9.01651e-05
6.63116e-08
1.98126e-05
9.27317e-05
-6.84274e-06
1.98118e-05
9.27353e-05
-1.29445e-05
1.94441e-05
9.01761e-05
-1.74276e-05
1.86828e-05
8.49583e-05
-1.94634e-05
1.74612e-05
7.69028e-05
1.55878e-05
6.58225e-05
-1.8536e-05
2.09467e-05
1.16155e-05
7.35808e-05
-1.98745e-05
1.87528e-05
1.29867e-05
8.49365e-05
1.39444e-05
1.38697e-05
9.29315e-05
7.42419e-06
1.44071e-05
9.79778e-05
6.02999e-08
1.46671e-05
0.000100415
-7.30582e-06
1.46662e-05
0.000100418
-1.3833e-05
1.44044e-05
9.79868e-05
-1.86535e-05
1.38655e-05
9.29472e-05
-2.08647e-05
1.29817e-05
8.49595e-05
1.16109e-05
7.36117e-05
-1.98145e-05
2.186e-05
6.1803e-06
7.88868e-05
-2.08026e-05
1.95104e-05
6.88799e-06
9.01582e-05
1.44788e-05
7.34464e-06
9.79744e-05
7.69625e-06
7.61975e-06
0.00010284
5.65196e-08
7.75347e-06
0.000105166
-7.58527e-06
7.75262e-06
0.000105169
-1.43742e-05
7.61717e-06
0.000102847
-1.94169e-05
7.34032e-06
9.79881e-05
-2.17827e-05
6.88206e-06
9.01787e-05
6.17315e-06
7.89149e-05
-2.07453e-05
2.23014e-05
-1.88068e-08
8.15597e-05
-2.12475e-05
1.98755e-05
-2.01075e-08
9.27206e-05
1.47377e-05
-2.10939e-08
0.000100408
7.82869e-06
-2.17831e-08
0.000105163
5.44913e-08
-2.23812e-08
0.000107427
-7.72171e-06
-2.3066e-08
0.000107429
-1.4637e-05
-2.39549e-08
0.00010517
-1.97854e-05
-2.50826e-08
0.00010042
-2.22268e-05
-2.63734e-08
9.27397e-05
-2.78975e-08
8.1586e-05
-2.1192e-05
2.23008e-05
-6.2169e-06
8.15586e-05
-2.12471e-05
1.98749e-05
-6.92732e-06
9.27196e-05
1.47372e-05
-7.386e-06
0.000100407
7.82819e-06
-7.66244e-06
0.000105162
5.39902e-08
-7.79732e-06
0.000107426
-7.72221e-06
-7.7978e-06
0.000107428
-1.46374e-05
-7.66408e-06
0.000105169
-1.97859e-05
-7.38944e-06
0.000100419
-2.22272e-05
-6.93369e-06
9.27383e-05
-6.22762e-06
8.15844e-05
-2.11922e-05
2.18583e-05
-1.16492e-05
7.88837e-05
-2.08012e-05
1.95087e-05
-1.30235e-05
9.01552e-05
1.44772e-05
-1.39085e-05
9.79714e-05
7.6947e-06
-1.44471e-05
0.000102837
5.50052e-08
-1.47082e-05
0.000105163
-7.58677e-06
-1.47085e-05
0.000105165
-1.43757e-05
-1.44483e-05
0.000102844
-1.94182e-05
-1.39115e-05
9.79844e-05
-2.17836e-05
-1.30299e-05
9.01745e-05
-1.16615e-05
7.89099e-05
-2.07456e-05
2.09437e-05
-1.56188e-05
7.35759e-05
-1.98719e-05
1.875e-05
-1.74969e-05
8.49316e-05
1.39416e-05
-1.87205e-05
9.29265e-05
7.4215e-06
-1.94819e-05
9.79727e-05
5.76923e-08
-1.98489e-05
0.000100409
-7.30836e-06
-1.98491e-05
0.000100412
-1.38353e-05
-1.94828e-05
9.79809e-05
-1.86554e-05
-1.87233e-05
9.29407e-05
-2.0866e-05
-1.75037e-05
8.49522e-05
-1.56321e-05
7.36034e-05
-1.98148e-05
1.9548e-05
-1.7459e-05
6.5782e-05
-1.85966e-05
1.75315e-05
-1.95191e-05
7.68697e-05
1.30622e-05
-2.09193e-05
8.49328e-05
6.96856e-06
-2.1836e-05
9.01579e-05
6.23217e-08
-2.22792e-05
9.2724e-05
-6.84637e-06
-2.22794e-05
9.27271e-05
-1.29476e-05
-2.1837e-05
9.01674e-05
-1.74299e-05
-2.09223e-05
8.49489e-05
-1.94646e-05
-1.95265e-05
7.68924e-05
-1.74726e-05
6.58111e-05
-1.85358e-05
1.74945e-05
5.58868e-05
-1.6884e-05
-1.69091e-05
1.56615e-05
6.5783e-05
-1.85747e-05
1.16967e-05
7.35782e-05
-1.98531e-05
6.26696e-06
7.88878e-05
-2.07836e-05
6.95252e-08
8.1565e-05
-2.12301e-05
-6.13092e-06
8.15688e-05
-2.12304e-05
-1.15697e-05
7.88992e-05
-2.0785e-05
-1.55499e-05
7.3597e-05
-1.98562e-05
-1.74038e-05
6.58083e-05
-1.8582e-05
5.59171e-05
-1.68449e-05
-1.68948e-05
9.87012e-06
9.71535e-06
5.4178e-05
-8.99405e-06
-8.88068e-06
9.13292e-06
1.14569e-05
6.53323e-05
-1.02662e-05
7.04373e-06
1.27235e-05
7.43433e-05
-1.1396e-05
3.90342e-06
1.35723e-05
8.06454e-05
-1.21853e-05
1.80646e-07
1.39942e-05
8.38786e-05
-1.25798e-05
-3.55076e-06
1.39942e-05
8.38928e-05
-1.25807e-05
-6.71638e-06
1.35732e-05
8.06875e-05
-1.21887e-05
-8.84763e-06
1.27269e-05
7.44118e-05
-1.14023e-05
-9.63943e-06
1.14671e-05
6.54238e-05
-1.02815e-05
9.7351e-06
5.42863e-05
-8.83045e-06
-8.90263e-06
1.15951e-05
8.94763e-06
6.53258e-05
-1.03695e-05
1.0807e-05
1.06427e-05
7.84744e-05
8.31526e-06
1.18184e-05
8.83324e-05
4.56923e-06
1.25713e-05
9.49081e-05
1.56298e-07
1.29395e-05
9.81954e-05
-4.26334e-06
1.29386e-05
9.82068e-05
-8.02941e-06
1.25692e-05
9.49424e-05
-1.05547e-05
1.18169e-05
8.839e-05
-1.13886e-05
1.06453e-05
7.85551e-05
8.95907e-06
6.54275e-05
-1.02203e-05
1.28475e-05
6.83539e-06
7.4327e-05
-1.14859e-05
1.19679e-05
8.1315e-06
8.83233e-05
9.18205e-06
9.01429e-06
9.85175e-05
5.01964e-06
9.56285e-06
0.000105145
1.39624e-07
9.82616e-06
0.000108404
-4.74599e-06
9.82465e-06
0.000108414
-8.9255e-06
9.55886e-06
0.000105173
-1.17407e-05
9.00924e-06
9.85666e-05
-1.2662e-05
8.12805e-06
8.83945e-05
6.83795e-06
7.44204e-05
-1.13523e-05
1.36883e-05
3.68271e-06
8.06163e-05
-1.22695e-05
1.27123e-05
4.37399e-06
9.48879e-05
9.72155e-06
4.84091e-06
0.000105135
5.29409e-06
5.12492e-06
0.000111701
1.29176e-07
5.25746e-06
0.000114896
-5.04066e-06
5.25578e-06
0.000114904
-9.48353e-06
5.12019e-06
0.000111726
-1.25013e-05
4.83383e-06
0.000105178
-1.35158e-05
4.36584e-06
9.49521e-05
3.67591e-06
8.07025e-05
-1.21441e-05
1.41063e-05
-4.22136e-08
8.38342e-05
-1.26602e-05
1.3077e-05
-4.23435e-08
9.81627e-05
9.9813e-06
-4.2995e-08
0.000108384
5.42272e-06
-4.38229e-08
0.000114886
1.23779e-07
-4.48828e-08
0.000118025
-5.17968e-06
-4.63804e-08
0.000118031
-9.75282e-06
-4.84295e-08
0.000114908
-1.28743e-05
-5.10027e-08
0.000108423
-1.39407e-05
-5.40213e-08
9.82227e-05
-5.74778e-08
8.39156e-05
-1.25396e-05
1.41059e-05
-3.76476e-06
8.38309e-05
-1.26597e-05
1.30766e-05
-4.45661e-06
9.81597e-05
9.98085e-06
-4.925e-06
0.000108381
5.42215e-06
-5.21072e-06
0.000114884
1.22995e-07
-5.34545e-06
0.000118022
-5.18065e-06
-5.3467e-06
0.000118029
-9.75382e-06
-5.21501e-06
0.000114905
-1.28752e-05
-4.93357e-06
0.00010842
-1.39413e-05
-4.47131e-06
9.82185e-05
-3.78773e-06
8.39106e-05
-1.25399e-05
1.36868e-05
-6.91072e-06
8.06068e-05
-1.2268e-05
1.27109e-05
-8.20809e-06
9.48792e-05
9.72e-06
-9.09256e-06
0.000105127
5.29214e-06
-9.64296e-06
0.000111693
1.26715e-07
-9.90842e-06
0.000114888
-5.04355e-06
-9.90965e-06
0.000114895
-9.48652e-06
-9.6474e-06
0.000111716
-1.25039e-05
-9.1021e-06
0.000105167
-1.35176e-05
-8.22581e-06
9.49395e-05
-6.94073e-06
8.06876e-05
-1.21449e-05
1.28446e-05
-9.01229e-06
7.43123e-05
-1.14831e-05
1.19651e-05
-1.07095e-05
8.83093e-05
9.17884e-06
-1.18869e-05
9.85039e-05
5.0158e-06
-1.26416e-05
0.000105131
1.35091e-07
-1.30118e-05
0.00010839
-4.75104e-06
-1.30133e-05
0.000108399
-8.93052e-06
-1.26469e-05
0.000105157
-1.17451e-05
-1.18981e-05
9.85481e-05
-1.26649e-05
-1.07303e-05
8.83735e-05
-9.04732e-06
7.43963e-05
-1.13536e-05
1.15901e-05
-9.76723e-06
6.53075e-05
-1.0364e-05
1.0802e-05
-1.15107e-05
7.84561e-05
8.30945e-06
-1.27784e-05
8.83139e-05
4.56249e-06
-1.36286e-05
9.48889e-05
1.48829e-07
-1.40522e-05
9.81752e-05
-4.27105e-06
-1.40542e-05
9.81851e-05
-8.03667e-06
-1.36354e-05
9.49186e-05
-1.05608e-05
-1.27918e-05
8.83637e-05
-1.13925e-05
-1.15349e-05
7.85259e-05
-9.80476e-06
6.53955e-05
-1.02215e-05
9.86319e-06
5.41582e-05
-8.91688e-06
-8.98739e-06
9.12488e-06
6.53115e-05
-1.0303e-05
7.03391e-06
7.43212e-05
-1.14327e-05
3.89236e-06
8.06218e-05
-1.22234e-05
1.69085e-07
8.3853e-05
-1.26192e-05
-3.56191e-06
8.38648e-05
-1.26215e-05
-6.72609e-06
8.06568e-05
-1.22312e-05
-8.85516e-06
7.43783e-05
-1.14463e-05
-9.64415e-06
6.53878e-05
-1.03275e-05
5.42487e-05
-8.83317e-06
-8.94884e-06
2.50032e-06
2.14715e-06
5.30225e-05
-1.87909e-06
-1.61638e-06
2.69704e-06
2.94424e-06
6.42916e-05
-2.10378e-06
2.33866e-06
3.61237e-06
7.3657e-05
-2.57157e-06
1.49234e-06
4.08809e-06
8.03244e-05
-2.92474e-06
3.55605e-07
4.33263e-06
8.37898e-05
-3.11113e-06
-7.97488e-07
4.3373e-06
8.3821e-05
-3.11646e-06
-1.69199e-06
4.10415e-06
8.0417e-05
-2.94312e-06
-2.13091e-06
3.64431e-06
7.38069e-05
-2.60443e-06
-2.03914e-06
3.00259e-06
6.44901e-05
-2.1644e-06
2.2389e-06
5.32552e-05
-1.55055e-06
-1.69926e-06
3.24712e-06
2.28105e-06
6.42755e-05
-2.33404e-06
3.53479e-06
3.18037e-06
7.79475e-05
3.02501e-06
3.88586e-06
8.85655e-05
1.85252e-06
4.35916e-06
9.58062e-05
3.06914e-07
4.59099e-06
9.94794e-05
-1.25154e-06
4.59384e-06
9.95055e-05
-2.46273e-06
4.36972e-06
9.58848e-05
-3.03744e-06
3.90926e-06
8.86965e-05
-2.83802e-06
3.22637e-06
7.81287e-05
2.36275e-06
6.45005e-05
-2.03726e-06
3.87286e-06
1.87774e-06
7.36177e-05
-2.76361e-06
4.19618e-06
2.63374e-06
8.85435e-05
3.55042e-06
3.20545e-06
9.98405e-05
2.12314e-06
3.56855e-06
0.00010736
2.72737e-07
3.73277e-06
0.00011111
-1.58851e-06
3.73389e-06
0.000111132
-3.04916e-06
3.57395e-06
0.000107427
-3.75227e-06
3.2201e-06
9.99556e-05
-3.50961e-06
2.66656e-06
8.87085e-05
1.94281e-06
7.38303e-05
-2.50204e-06
4.32333e-06
1.01001e-06
8.02547e-05
-3.09741e-06
4.64311e-06
1.44118e-06
9.57577e-05
3.88656e-06
1.75846e-06
0.000107335
2.28762e-06
1.95014e-06
0.000114916
2.51658e-07
2.02585e-06
0.000118636
-1.79389e-06
2.02588e-06
0.000118655
-3.42311e-06
1.95202e-06
0.000114974
-4.23282e-06
1.76592e-06
0.000107439
-3.98826e-06
1.46092e-06
9.59101e-05
1.05313e-06
8.04558e-05
-2.85449e-06
4.5538e-06
-1.26585e-07
8.36837e-05
-3.27013e-06
4.86205e-06
-1.07781e-07
9.94005e-05
4.03881e-06
-9.73171e-08
0.00011106
2.35142e-06
-9.20155e-08
0.000118613
2.41517e-07
-8.99139e-08
0.000122248
-1.87687e-06
-9.00448e-08
0.000122263
-3.59307e-06
-9.19654e-08
0.000118666
-4.46785e-06
-9.53699e-08
0.000111156
-4.23274e-06
-1.00109e-07
9.95455e-05
-1.06257e-07
8.38777e-05
-3.03798e-06
4.55343e-06
-1.25717e-06
8.36738e-05
-3.26904e-06
4.86231e-06
-1.65201e-06
9.93922e-05
4.03931e-06
-1.94895e-06
0.000111052
2.35175e-06
-2.13034e-06
0.000118607
2.41235e-07
-2.20221e-06
0.000122242
-1.87774e-06
-2.20246e-06
0.000122258
-3.59409e-06
-2.13199e-06
0.000118659
-4.46869e-06
-1.95228e-06
0.000111148
-4.23318e-06
-1.65616e-06
9.9536e-05
-1.25965e-06
8.38665e-05
-3.03809e-06
4.32139e-06
-2.10733e-06
8.02254e-05
-3.09319e-06
4.64314e-06
-2.8304e-06
9.5733e-05
3.88728e-06
-3.38321e-06
0.000107314
2.28781e-06
-3.73671e-06
0.000114896
2.50511e-07
-3.89733e-06
0.000118618
-1.79634e-06
-3.89858e-06
0.000118636
-3.42604e-06
-3.74151e-06
0.000114953
-4.23524e-06
-3.39305e-06
0.000107414
-3.98944e-06
-2.8469e-06
9.58815e-05
-2.13195e-06
8.04226e-05
-2.85446e-06
3.86759e-06
-2.48153e-06
7.3571e-05
-2.75535e-06
4.19412e-06
-3.35354e-06
8.85031e-05
3.54953e-06
-4.042e-06
9.98043e-05
2.1217e-06
-4.5064e-06
0.000107326
2.69761e-07
-4.73473e-06
0.000111077
-1.59297e-06
-4.73753e-06
0.000111098
-3.05409e-06
-4.51571e-06
0.000107389
-3.75635e-06
-4.05956e-06
9.9914e-05
-3.51161e-06
-3.3824e-06
8.86613e-05
-2.52417e-06
7.37768e-05
-2.50209e-06
3.23461e-06
-2.31036e-06
6.42152e-05
-2.31646e-06
3.52729e-06
-3.08579e-06
7.78931e-05
3.01947e-06
-3.7384e-06
8.85154e-05
1.84696e-06
-4.20611e-06
9.57584e-05
3.00288e-07
-4.4473e-06
9.94317e-05
-1.25908e-06
-4.45168e-06
9.94559e-05
-2.47014e-06
-4.22028e-06
9.58315e-05
-3.04328e-06
-3.76366e-06
8.86382e-05
-2.84041e-06
-3.12652e-06
7.80646e-05
-2.3659e-06
6.44305e-05
-2.0357e-06
2.47807e-06
5.29534e-05
-1.7325e-06
-1.85338e-06
2.67978e-06
6.42261e-05
-2.20415e-06
2.32406e-06
7.35953e-05
-2.65888e-06
1.4792e-06
8.02646e-05
-3.00625e-06
3.42997e-07
8.37295e-05
-3.18982e-06
-8.09385e-07
8.37581e-05
-3.19479e-06
-1.70214e-06
8.03497e-05
-3.02258e-06
-2.13832e-06
7.37344e-05
-2.68569e-06
-2.04238e-06
6.44126e-05
-2.24923e-06
5.31748e-05
-1.55057e-06
-1.78515e-06
2.2074e-06
1.51235e-06
5.2573e-05
-1.89446e-06
-1.38056e-06
2.19901e-06
1.97183e-06
6.40331e-05
-1.70978e-06
1.89633e-06
2.34835e-06
7.36099e-05
-2.00368e-06
1.32604e-06
2.61256e-06
8.04843e-05
-2.20728e-06
5.90605e-07
2.75191e-06
8.40868e-05
-2.31838e-06
-1.71377e-07
2.76701e-06
8.41436e-05
-2.33227e-06
-8.19649e-07
2.66171e-06
8.0652e-05
-2.253e-06
-1.2533e-06
2.43961e-06
7.388e-05
-2.08328e-06
-1.43344e-06
2.12295e-06
6.43886e-05
-1.84524e-06
1.73186e-06
5.29865e-05
-1.34147e-06
-1.5581e-06
2.56015e-06
1.38307e-06
6.39971e-05
-2.15703e-06
2.56832e-06
1.8838e-06
7.80232e-05
2.18073e-06
2.2798e-06
8.90175e-05
1.44947e-06
2.54748e-06
9.65985e-05
5.16807e-07
2.6798e-06
0.00010048
-4.37152e-07
2.69293e-06
0.00010053
-1.23228e-06
2.59121e-06
9.67468e-05
-1.72697e-06
2.36435e-06
8.92629e-05
-1.86491e-06
2.02686e-06
7.83594e-05
1.60542e-06
6.44095e-05
-1.65001e-06
2.84304e-06
9.98646e-07
7.35246e-05
-2.37001e-06
2.86484e-06
1.43081e-06
8.89708e-05
2.408e-06
1.76255e-06
0.000100811
1.54699e-06
1.97407e-06
0.00010879
4.62269e-07
2.0652e-06
0.000112806
-6.40495e-07
2.07539e-06
0.000112849
-1.55716e-06
2.00984e-06
0.000108921
-2.10951e-06
1.83484e-06
0.000101034
-2.22233e-06
1.55764e-06
8.92872e-05
1.2049e-06
7.39268e-05
-1.92098e-06
3.04714e-06
3.93606e-07
8.03369e-05
-2.52858e-06
3.06851e-06
6.66757e-07
9.64967e-05
2.55423e-06
8.69008e-07
0.000108739
1.60332e-06
9.90308e-07
0.000116847
4.27843e-07
1.03166e-06
0.000120842
-7.63621e-07
1.03946e-06
0.000120879
-1.76558e-06
1.01896e-06
0.000116964
-2.36918e-06
9.28082e-07
0.000108946
-2.47413e-06
7.71947e-07
9.67975e-05
5.66859e-07
8.07285e-05
-2.11129e-06
3.14906e-06
-3.36274e-07
8.38661e-05
-2.60565e-06
3.16477e-06
-2.68102e-07
0.000100316
2.61156e-06
-2.22675e-07
0.000112701
1.61197e-06
-1.94674e-07
0.000120794
4.11192e-07
-1.78961e-07
0.000124656
-8.03444e-07
-1.71717e-07
0.000124686
-1.85214e-06
-1.70917e-07
0.000120901
-2.49317e-06
-1.7576e-07
0.000112898
-2.60131e-06
-1.86278e-07
0.000100609
-2.02974e-07
8.42523e-05
-2.20862e-06
3.14535e-06
-1.05214e-06
8.38405e-05
-2.6002e-06
3.16324e-06
-1.19263e-06
0.000100296
2.61152e-06
-1.30596e-06
0.000112684
1.61238e-06
-1.37232e-06
0.00012078
4.10745e-07
-1.3833e-06
0.000124645
-8.04892e-07
-1.37675e-06
0.000124675
-1.85364e-06
-1.35377e-06
0.000120888
-2.49414e-06
-1.27183e-06
0.000112882
-2.60142e-06
-1.13566e-06
0.00010059
-9.6224e-07
8.42298e-05
-2.20798e-06
3.03365e-06
-1.61582e-06
8.02613e-05
-2.50959e-06
3.06171e-06
-1.92569e-06
9.64348e-05
2.55194e-06
-2.17358e-06
0.000108688
1.60256e-06
-2.33277e-06
0.000116803
4.26051e-07
-2.39465e-06
0.000120803
-7.6699e-07
-2.39078e-06
0.00012084
-1.76919e-06
-2.32219e-06
0.00011692
-2.37145e-06
-2.15464e-06
0.000108896
-2.47381e-06
-1.89495e-06
9.67402e-05
-1.56954e-06
8.06621e-05
-2.10844e-06
2.81436e-06
-1.92936e-06
7.34021e-05
-2.33533e-06
2.84701e-06
-2.32601e-06
8.88677e-05
2.39808e-06
-2.64612e-06
0.000100723
1.54103e-06
-2.86532e-06
0.000108712
4.56872e-07
-2.96977e-06
0.000112733
-6.46445e-07
-2.96936e-06
0.000112777
-1.56249e-06
-2.86445e-06
0.000108845
-2.11233e-06
-2.64362e-06
0.00010095
-2.22078e-06
-2.32086e-06
8.91928e-05
-1.92026e-06
7.38204e-05
-1.91589e-06
2.50377e-06
-1.96348e-06
6.38341e-05
-2.09174e-06
2.52802e-06
-2.34054e-06
7.78806e-05
2.15291e-06
-2.65048e-06
8.88921e-05
1.43022e-06
-2.87223e-06
9.64852e-05
5.02415e-07
-2.98639e-06
0.000100373
-4.48265e-07
-2.98908e-06
0.000100424
-1.23966e-06
-2.88069e-06
9.66364e-05
-1.72917e-06
-2.66325e-06
8.91446e-05
-1.85956e-06
-2.35931e-06
7.82308e-05
-1.98348e-06
6.42701e-05
-1.63785e-06
2.1132e-06
5.23796e-05
-1.70457e-06
-1.80064e-06
2.12028e-06
6.38544e-05
-1.97792e-06
1.83451e-06
7.34484e-05
-2.2199e-06
1.28101e-06
8.03365e-05
-2.39281e-06
5.59102e-07
8.39468e-05
-2.48393e-06
-1.91472e-07
8.40053e-05
-2.48789e-06
-8.29028e-07
8.05103e-05
-2.40587e-06
-1.25281e-06
7.37313e-05
-2.23844e-06
-1.42315e-06
6.42322e-05
-2.01043e-06
5.28256e-05
-1.32663e-06
-1.73206e-06
9.43513e-07
-1.65633e-07
5.23277e-05
-6.71542e-07
1.36238e-07
1.11136e-06
6.02463e-08
6.37914e-05
1.07596e-08
1.1481e-06
2.73449e-07
7.34333e-05
-1.3665e-07
1.04984e-06
4.33992e-07
8.03893e-05
-2.43895e-07
8.56094e-07
5.30802e-07
8.40604e-05
-3.13894e-07
6.22478e-07
5.59414e-07
8.41525e-05
-3.38047e-07
4.06851e-07
5.23726e-07
8.06614e-05
-3.20828e-07
2.46857e-07
4.30593e-07
7.38713e-05
-2.65189e-07
1.57676e-07
3.00086e-07
6.43675e-05
-1.92959e-07
1.52635e-07
5.29961e-05
1.02897e-07
-1.09768e-07
1.02266e-06
-1.99757e-07
6.37192e-05
-7.13297e-07
1.2059e-06
8.1131e-08
7.78166e-05
1.21127e-06
3.25322e-07
8.89576e-05
1.04618e-06
5.0492e-07
9.669e-05
7.67894e-07
6.0755e-07
0.000100679
4.57017e-07
6.35043e-07
0.000100762
1.94041e-07
5.91956e-07
9.69388e-05
3.5353e-08
4.81559e-07
8.93678e-05
-4.98129e-09
3.21687e-07
7.83754e-05
1.36298e-07
6.43997e-05
1.91175e-08
1.09016e-06
-2.96385e-07
7.32662e-05
-7.37786e-07
1.292e-06
-2.00603e-08
8.88676e-05
1.27343e-06
2.09718e-07
0.000100942
1.0493e-06
3.73234e-07
0.000109143
6.96193e-07
4.61028e-07
0.000113303
3.14959e-07
4.84895e-07
0.000113377
4.7203e-09
4.50627e-07
0.00010937
-1.60912e-07
3.52307e-07
0.000101326
-1.65914e-07
2.0441e-07
8.94067e-05
2.73776e-08
7.39443e-05
-7.65924e-08
1.14649e-06
-4.47071e-07
8.01083e-05
-7.70031e-07
1.35771e-06
-2.34378e-07
9.64973e-05
1.32009e-06
-6.33427e-08
0.000109047
1.05314e-06
5.57329e-08
0.000117429
6.46494e-07
1.17396e-07
0.00012159
2.14314e-07
1.37415e-07
0.000121656
-1.32065e-07
1.21951e-07
0.000117636
-3.07069e-07
5.99162e-08
0.00010941
-2.89061e-07
-3.89529e-08
9.70201e-05
-1.64624e-07
8.07801e-05
-1.50946e-07
1.16918e-06
-6.25173e-07
8.36495e-05
-7.77384e-07
1.38538e-06
-5.09768e-07
0.000100373
1.33631e-06
-4.22417e-07
0.000113107
1.04702e-06
-3.62996e-07
0.0001215
6.18178e-07
-3.27077e-07
0.000125527
1.66368e-07
-3.09188e-07
0.000125582
-1.99721e-07
-3.0667e-07
0.000121693
-3.83132e-07
-3.1972e-07
0.000113458
-3.54528e-07
-3.49618e-07
0.000100888
-3.98106e-07
8.43194e-05
-1.90323e-07
1.15117e-06
-7.77739e-07
8.35991e-05
-7.60009e-07
1.37013e-06
-7.66427e-07
0.000100331
1.32442e-06
-7.66592e-07
0.000113072
1.03766e-06
-7.68858e-07
0.000121471
6.09689e-07
-7.60203e-07
0.000125504
1.58525e-07
-7.44804e-07
0.00012556
-2.05579e-07
-7.23279e-07
0.000121666
-3.86226e-07
-6.86226e-07
0.000113426
-3.54523e-07
-6.45148e-07
0.000100851
-6.12887e-07
8.42758e-05
-1.8791e-07
1.08847e-06
-8.52679e-07
7.99582e-05
-7.13391e-07
1.30817e-06
-9.2418e-07
9.63704e-05
1.28073e-06
-9.93834e-07
0.00010894
1.02188e-06
-1.04615e-06
0.000117337
6.20118e-07
-1.06585e-06
0.000121508
1.92079e-07
-1.05502e-06
0.000121576
-1.48208e-07
-1.01413e-06
0.000117549
-3.14982e-07
-9.38192e-07
0.000109312
-2.8745e-07
-8.43036e-07
9.69079e-05
-7.49881e-07
8.06511e-05
-1.41579e-07
9.8368e-07
-8.18564e-07
7.30212e-05
-6.3974e-07
1.19812e-06
-9.28308e-07
8.8655e-05
1.19663e-06
-1.02944e-06
0.000100757
9.88267e-07
-1.10706e-06
0.000108979
6.47495e-07
-1.14521e-06
0.000113151
2.77256e-07
-1.13937e-06
0.000113229
-2.03963e-08
-1.08948e-06
0.000109215
-1.71201e-07
-9.98313e-07
0.000101158
-1.59972e-07
-8.84371e-07
8.92203e-05
-7.67216e-07
7.37355e-05
-5.96519e-08
8.47779e-07
-6.76148e-07
6.33905e-05
-5.49155e-07
1.04849e-06
-7.70431e-07
7.75197e-05
1.07837e-06
-8.60642e-07
8.8691e-05
9.40132e-07
-9.33557e-07
9.64475e-05
6.86933e-07
-9.72846e-07
0.000100452
3.99886e-07
-9.71083e-07
0.00010054
1.61157e-07
-9.28538e-07
9.67118e-05
2.73556e-08
-8.50718e-07
8.91284e-05
1.28573e-08
-7.59534e-07
7.81182e-05
-6.63848e-07
6.41226e-05
5.53176e-08
6.89842e-07
5.19357e-05
-4.68249e-07
-4.55682e-07
8.66542e-07
6.3417e-05
-5.11383e-07
9.31974e-07
7.30854e-05
-5.64912e-07
8.76857e-07
8.00668e-05
-6.10617e-07
7.29023e-07
8.37558e-05
-6.35876e-07
5.41168e-07
8.38558e-05
-6.3567e-07
3.69809e-07
8.03628e-05
-6.11684e-07
2.48878e-07
7.35637e-05
-5.64007e-07
1.92524e-07
6.40485e-05
-5.21187e-07
5.26707e-05
1.51454e-07
-4.69078e-07
1.17266e-06
-1.5863e-07
5.21828e-05
-9.05059e-07
3.15287e-08
1.31262e-06
-2.83375e-08
6.37235e-05
-4.81042e-08
1.34281e-06
1.07268e-07
7.34495e-05
-1.58232e-07
1.25778e-06
2.13251e-07
8.04905e-05
-2.33976e-07
1.08486e-06
2.8372e-07
8.42335e-05
-2.88434e-07
8.5571e-07
3.12393e-07
8.43758e-05
-3.10829e-07
6.05458e-07
2.98815e-07
8.09112e-05
-3.02408e-07
3.63842e-07
2.42457e-07
7.41281e-05
-2.61501e-07
1.55445e-07
1.49492e-07
6.46184e-05
-1.95597e-07
2.86065e-08
5.32224e-05
7.22325e-10
-1.0294e-07
1.20905e-06
-2.95264e-07
6.35958e-05
-9.53102e-07
1.33387e-06
-1.42189e-07
7.78018e-05
1.33423e-06
5.56281e-09
8.90551e-05
1.21662e-06
1.22103e-07
9.6895e-05
1.0128e-06
1.95873e-07
0.000100967
7.62016e-07
2.24366e-07
0.000101098
5.03722e-07
2.07598e-07
9.7285e-05
2.70264e-07
1.42911e-07
8.96976e-05
8.0277e-08
3.60357e-08
7.86757e-05
-1.01744e-07
6.46575e-05
-4.95415e-08
1.21126e-06
-4.48619e-07
7.31578e-05
-9.53669e-07
1.33186e-06
-2.9846e-07
8.88996e-05
1.31337e-06
-1.56771e-07
0.000101119
1.16882e-06
-4.69827e-08
0.000109453
9.38095e-07
1.8603e-08
0.000113707
6.66889e-07
4.3506e-08
0.000113826
3.98611e-07
2.91418e-08
0.000109814
1.7007e-07
-3.26883e-08
0.000101727
-1.24659e-09
-1.37712e-07
8.97488e-05
-2.76521e-07
7.42199e-05
-1.04455e-07
1.20443e-06
-6.03702e-07
8.0011e-05
-9.56045e-07
1.31866e-06
-4.8606e-07
9.65673e-05
1.2868e-06
-3.71593e-07
0.000109291
1.12351e-06
-2.8241e-07
0.000117824
8.74905e-07
-2.3015e-07
0.000122084
5.90472e-07
-2.09687e-07
0.000122191
3.1493e-07
-2.18963e-07
0.000118157
8.96665e-08
-2.69276e-07
0.000109869
-6.59562e-08
-3.58698e-07
9.73938e-05
-4.82351e-07
8.10631e-05
-1.45504e-07
1.18157e-06
-7.49053e-07
8.35486e-05
-9.39056e-07
1.29222e-06
-6.81468e-07
0.000100454
1.25405e-06
-6.07444e-07
0.000113377
1.08268e-06
-5.46124e-07
0.000121932
8.29068e-07
-5.05504e-07
0.000126053
5.44201e-07
-4.87476e-07
0.000126142
2.66732e-07
-4.94352e-07
0.000122244
4.37098e-08
-5.29438e-07
0.000113939
-1.01598e-07
-5.95119e-07
0.000101267
-6.91612e-07
8.45909e-05
-1.6622e-07
1.14342e-06
-8.60215e-07
8.34726e-05
-9.09445e-07
1.25325e-06
-8.49554e-07
0.000100386
1.21854e-06
-8.20987e-07
0.000113317
1.05209e-06
-7.90684e-07
0.000121879
8.02484e-07
-7.64168e-07
0.00012601
5.2179e-07
-7.49118e-07
0.0001261
2.50797e-07
-7.5155e-07
0.000122191
3.52313e-08
-7.6894e-07
0.000113879
-1.02805e-07
-8.06949e-07
0.000101198
-8.69676e-07
8.45113e-05
-1.62466e-07
1.08793e-06
-9.14447e-07
7.97854e-05
-8.64337e-07
1.19904e-06
-9.54723e-07
9.63615e-05
1.17666e-06
-9.66822e-07
0.000109105
1.02789e-06
-9.65596e-07
0.000117657
7.94019e-07
-9.56188e-07
0.000121931
5.25664e-07
-9.46486e-07
0.000122039
2.70049e-07
-9.42009e-07
0.000117992
6.72363e-08
-9.42038e-07
0.000109685
-6.61912e-08
-9.54033e-07
9.71857e-05
-9.83568e-07
8.08267e-05
-1.30052e-07
1.01505e-06
-8.97522e-07
7.27905e-05
-8.0444e-07
1.12688e-06
-9.7078e-07
8.85564e-05
1.12155e-06
-1.00897e-06
0.000100802
1.00202e-06
-1.02775e-06
0.000109158
8.00714e-07
-1.03247e-06
0.000113426
5.62165e-07
-1.02817e-06
0.000113546
3.30683e-07
-1.01936e-06
0.000109522
1.40956e-07
-1.00852e-06
0.000101412
6.45073e-09
-1.00362e-06
8.94018e-05
-1.00398e-06
7.38354e-05
-7.51284e-08
9.26462e-07
-8.10503e-07
6.31052e-05
-7.31095e-07
1.03637e-06
-8.90292e-07
7.73268e-05
1.05159e-06
-9.36951e-07
8.86012e-05
9.71453e-07
-9.64028e-07
9.64614e-05
8.1709e-07
-9.75619e-07
0.000100547
6.22582e-07
-9.75107e-07
0.000100679
4.24285e-07
-9.67015e-07
9.68553e-05
2.49705e-07
-9.53856e-07
8.92458e-05
1.14075e-07
-9.46662e-07
7.81945e-05
-9.30511e-07
6.41443e-05
1.7117e-08
8.18633e-07
5.16051e-05
-6.48521e-07
-6.52173e-07
9.22195e-07
6.31344e-05
-7.13061e-07
9.62002e-07
7.28652e-05
-7.58512e-07
9.29804e-07
7.99185e-05
-7.85518e-07
8.33902e-07
8.36718e-05
-7.97642e-07
6.9449e-07
8.3816e-05
-7.97837e-07
5.36924e-07
8.03431e-05
-7.9164e-07
3.76687e-07
7.3544e-05
-7.75909e-07
2.31192e-07
6.4018e-05
-7.7239e-07
5.26161e-05
9.59453e-08
-7.41891e-07
7.7821e-07
-2.55977e-07
5.19944e-05
-5.06526e-07
1.70629e-07
9.90885e-07
-3.03721e-07
6.35849e-05
2.27354e-07
1.12543e-06
-3.02509e-07
7.33881e-05
2.26901e-07
1.16185e-06
-2.85858e-07
8.05125e-05
2.24796e-07
1.11016e-06
-2.69468e-07
8.43344e-05
2.17606e-07
9.88312e-07
-2.69826e-07
8.45441e-05
2.20683e-07
8.20613e-07
-2.9619e-07
8.11328e-05
2.39554e-07
6.33382e-07
-3.53126e-07
7.43887e-05
2.76978e-07
4.51945e-07
-4.38104e-07
6.49042e-05
3.31127e-07
-5.35038e-07
5.35236e-05
2.8819e-07
3.95607e-07
8.3332e-07
-3.1996e-07
6.33867e-05
-5.62332e-07
1.04162e-06
-3.71242e-07
7.76591e-05
1.1601e-06
-3.69829e-07
8.90019e-05
1.18196e-06
-3.47744e-07
9.69328e-05
1.12104e-06
-3.289e-07
0.000101085
9.98776e-07
-3.30617e-07
0.000101279
8.38763e-07
-3.63231e-07
9.75097e-05
6.62946e-07
-4.32762e-07
8.99506e-05
4.88243e-07
-5.36053e-07
7.8946e-05
-6.58203e-07
6.49436e-05
3.23546e-07
8.3923e-07
-3.75068e-07
7.29377e-05
-5.66192e-07
1.04226e-06
-4.38693e-07
8.8762e-05
1.14826e-06
-4.43673e-07
0.000101085
1.15699e-06
-4.24731e-07
0.000109519
1.08721e-06
-4.09784e-07
0.000113856
9.63714e-07
-4.15462e-07
0.000114033
8.10384e-07
-4.51731e-07
0.000110053
6.47395e-07
-5.27128e-07
0.000101982
4.88411e-07
-6.3942e-07
9.00088e-05
-7.77527e-07
7.4487e-05
3.38742e-07
8.24539e-07
-4.08892e-07
7.97834e-05
-5.65315e-07
1.01688e-06
-4.98654e-07
9.64328e-05
1.1125e-06
-5.21483e-07
0.000109271
1.11179e-06
-5.14797e-07
0.000117913
1.03583e-06
-5.0806e-07
0.000122256
9.12922e-07
-5.18655e-07
0.000122415
7.67314e-07
-5.56221e-07
0.000118405
6.17526e-07