/*--------------------------------*- C++ -*----------------------------------*\
| =========                 |                                                 |
| \\      /  F ield         | OpenFOAM: The Open Source CFD Toolbox           |
|  \\    /   O peration     | Version:  2406                                  |
|   \\  /    A nd           | Website:  www.openfoam.com                      |
|    \\/     M anipulation  |                                                 |
\*---------------------------------------------------------------------------*/
FoamFile
{
    version     2.0;
    format      ascii;
    arch        "LSB;label=32;scalar=64";
    class       volSymmTensorField;
    location    "0.8";
    object      turbulenceProperties:devReff;
}
// * * * * * * * * * * * * * * * * * * * * * * * * * * * * * * * * * * * * * //

dimensions      [0 2 -2 0 0 0 0];

internalField   nonuniform List<symmTensor> 
25000
(
(0.0299391 -0.0224497 -0.0712278 0.0299481 -0.0712015 -0.0598872)
(0.0517175 -0.0117148 -0.0452983 0.0323365 -0.0646021 -0.0840541)
(0.0592541 -0.00642314 -0.0276615 0.0382174 -0.0554807 -0.0974715)
(0.0629588 -0.00293065 -0.0148765 0.0419216 -0.0490892 -0.10488)
(0.0645548 -0.000863599 -0.00469285 0.0437116 -0.0459511 -0.108266)
(0.0645566 0.000872729 0.00464309 0.0437137 -0.0459512 -0.10827)
(0.0629644 0.00293866 0.0148278 0.0419279 -0.0490896 -0.104892)
(0.0592638 0.00642796 0.0276152 0.038228 -0.0554817 -0.0974919)
(0.0517325 0.0117159 0.0452556 0.0323523 -0.0646045 -0.0840848)
(0.0299615 0.0224435 0.0711934 0.0299669 -0.0712056 -0.0599283)
(0.0323267 -0.0117148 -0.0646264 0.0517254 -0.0452674 -0.0840521)
(0.0533435 -0.00547601 -0.0363964 0.0533535 -0.0363684 -0.106697)
(0.0599733 -0.00298324 -0.0199807 0.0562533 -0.0302165 -0.116227)
(0.0628432 -0.00132587 -0.0100502 0.057856 -0.0263728 -0.120699)
(0.0639662 -0.00036373 -0.00307317 0.0585751 -0.0245395 -0.122541)
(0.063968 0.000370443 0.00303065 0.0585759 -0.0245393 -0.122544)
(0.0628486 0.00133191 0.0100081 0.0578583 -0.0263725 -0.120707)
(0.0599825 0.00298798 0.0199401 0.0562578 -0.0302165 -0.11624)
(0.0533572 0.00547909 0.0363583 0.0533613 -0.0363691 -0.106718)
(0.0323473 0.0117139 0.0645945 0.0517368 -0.045269 -0.0840841)
(0.0382051 -0.00642364 -0.0555026 0.0592592 -0.0276295 -0.0974643)
(0.0562421 -0.00298341 -0.0302421 0.0599805 -0.0199518 -0.116223)
(0.0617954 -0.00157623 -0.0158175 0.0618032 -0.0157907 -0.123599)
(0.0638388 -0.000654133 -0.00757626 0.0628301 -0.0134898 -0.126669)
(0.0644903 -0.000162758 -0.00225219 0.0632713 -0.012454 -0.127762)
(0.0644921 0.000167066 0.00221442 0.0632715 -0.0124537 -0.127764)
(0.0638441 0.000658119 0.0075386 0.0628309 -0.0134891 -0.126675)
(0.0618045 0.00157975 0.0157806 0.0618051 -0.0157897 -0.12361)
(0.0562556 0.00298638 0.0302074 0.0599843 -0.019951 -0.11624)
(0.0382254 0.00642446 0.0554734 0.0592658 -0.0276291 -0.0974912)
(0.0419068 -0.00293188 -0.0491098 0.0629622 -0.0148438 -0.104869)
(0.0578434 -0.00132625 -0.0263968 0.0628483 -0.0100208 -0.120692)
(0.0628214 -0.000654283 -0.0135152 0.0638442 -0.00754909 -0.126666)
(0.064414 -0.000233657 -0.00631457 0.0644198 -0.00628871 -0.128834)
(0.0647916 -4.66384e-05 -0.00184875 0.0646592 -0.00575592 -0.129451)
(0.0647934 4.91579e-05 0.00181384 0.064659 -0.00575569 -0.129452)
(0.0644195 0.000236148 0.00627968 0.0644194 -0.00628798 -0.128839)
(0.0628308 0.00065679 0.0134808 0.0638443 -0.00754787 -0.126675)
(0.0578571 0.00132874 0.0263643 0.0628497 -0.0100193 -0.120707)
(0.0419266 0.00293324 0.049082 0.0629658 -0.0148422 -0.104892)
(0.0436939 -0.000864274 -0.0459708 0.0645562 -0.00465999 -0.10825)
(0.0585612 -0.000364048 -0.0245625 0.0639693 -0.00304372 -0.12253)
(0.0632616 -0.000163057 -0.0124786 0.0644936 -0.00222493 -0.127755)
(0.0646532 -4.69094e-05 -0.00578117 0.0647948 -0.00182277 -0.129448)
(0.0649081 -5.66264e-06 -0.00168439 0.0649111 -0.001659 -0.129819)
(0.06491 6.51711e-06 0.00165088 0.0649107 -0.00165883 -0.129821)
(0.0646591 4.80333e-05 0.00574771 0.0647937 -0.00182222 -0.129453)
(0.0632717 0.000164682 0.0124457 0.0644925 -0.00222386 -0.127764)
(0.0585752 0.000366272 0.0245313 0.0639693 -0.00304205 -0.122545)
(0.0437138 0.000866768 0.0459439 0.0645583 -0.00465769 -0.108272)
(0.0436932 0.00087306 -0.0459705 0.0645554 0.00467566 -0.108249)
(0.0585605 0.000370395 -0.0245621 0.0639686 0.00306008 -0.122529)
(0.0632611 0.00016663 -0.0124783 0.0644928 0.00224177 -0.127754)
(0.0646529 4.8505e-05 -0.00578097 0.0647938 0.00183989 -0.129447)
(0.0649081 5.98105e-06 -0.00168427 0.06491 0.00167631 -0.129818)
(0.0649102 -6.94039e-06 0.00165095 0.0649094 0.0016764 -0.12982)
(0.0646593 -4.88602e-05 0.00574774 0.0647924 0.00184022 -0.129452)
(0.0632719 -0.000165973 0.0124457 0.0644911 0.00224254 -0.127763)
(0.0585752 -0.000368465 0.0245313 0.063968 0.00306164 -0.122543)
(0.0437134 -0.00086954 0.0459439 0.0645572 0.00467841 -0.108271)
(0.0419046 0.00294073 -0.049109 0.0629594 0.0148594 -0.104864)
(0.0578416 0.00133234 -0.0263956 0.0628458 0.0100372 -0.120687)
(0.0628199 0.000657543 -0.0135143 0.0638415 0.00756592 -0.126661)
(0.0644133 0.000234997 -0.00631399 0.0644165 0.00630572 -0.12883)
(0.0647915 4.6755e-05 -0.0018484 0.0646555 0.00577305 -0.129447)
(0.0647938 -4.97283e-05 0.00181405 0.0646549 0.00577304 -0.129449)
(0.0644202 -0.000237088 0.00627979 0.0644151 0.00630576 -0.128835)
(0.0628315 -0.000658118 0.0134808 0.0638398 0.00756633 -0.126671)
(0.0578573 -0.00133084 0.0263641 0.0628454 0.0100386 -0.120703)
(0.0419253 -0.00293607 0.0490819 0.062962 0.0148626 -0.104887)
(0.0382016 0.0064327 -0.0555014 0.0592539 0.027645 -0.0974555)
(0.0562394 0.00298897 -0.0302403 0.0599753 0.019968 -0.116215)
(0.0617935 0.00157887 -0.0158161 0.0617975 0.0158072 -0.123591)
(0.0638381 0.000655043 -0.00757537 0.0628236 0.0135063 -0.126662)
(0.0644906 0.000162629 -0.00225163 0.063264 0.0124704 -0.127755)
(0.0644931 -0.00016782 0.0022148 0.0632636 0.0124703 -0.127757)
(0.0638456 -0.000659279 0.00753882 0.0628226 0.0135061 -0.126668)
(0.061806 -0.00158122 0.0157806 0.0617965 0.0158074 -0.123603)
(0.0562565 -0.00298842 0.0302071 0.0599757 0.0199695 -0.116232)
(0.0382236 -0.00642739 0.0554732 0.0592581 0.0276485 -0.0974817)
(0.032322 0.0117233 -0.0646249 0.0517164 0.0452825 -0.0840383)
(0.0533408 0.00548077 -0.0363943 0.0533437 0.036384 -0.106685)
(0.0599721 0.00298533 -0.0199791 0.0562425 0.030232 -0.116215)
(0.0628433 0.00132659 -0.010049 0.0578443 0.026388 -0.120688)
(0.0639674 0.000363583 -0.00307234 0.0585628 0.0245545 -0.12253)
(0.06397 -0.000371293 0.00303127 0.0585629 0.0245544 -0.122533)
(0.0628511 -0.00133341 0.0100084 0.0578447 0.0263879 -0.120696)
(0.0599852 -0.0029901 0.01994 0.0562434 0.0302324 -0.116229)
(0.0533597 -0.00548196 0.0363579 0.0533461 0.0363859 -0.106706)
(0.0323464 -0.0117181 0.0645943 0.0517222 0.0452868 -0.0840686)
(0.0299344 0.0224556 -0.0712263 0.029936 0.071215 -0.0598704)
(0.0517145 0.0117185 -0.0452963 0.0323229 0.0646162 -0.0840374)
(0.0592527 0.00642494 -0.0276598 0.0382024 0.0554942 -0.0974552)
(0.0629587 0.00293172 -0.0148751 0.0419061 0.0491022 -0.104865)
(0.0645555 0.000863749 -0.00469161 0.0436957 0.0459637 -0.108251)
(0.0645578 -0.000873502 0.00464411 0.0436973 0.0459637 -0.108255)
(0.0629657 -0.00294061 0.0148284 0.041911 0.0491022 -0.104877)
(0.0592651 -0.00643139 0.0276153 0.0382103 0.0554946 -0.0974753)
(0.0517339 -0.0117205 0.0452551 0.0323332 0.0646178 -0.0840671)
(0.0299609 -0.0224485 0.0711929 0.0299478 0.0712193 -0.0599086)
(-0.000408361 -0.0176345 -0.109352 -0.000375685 -0.1093 0.000784046)
(0.0129828 -0.0158405 -0.0753595 0.000838162 -0.107189 -0.013821)
(0.0224909 -0.0121303 -0.0477666 0.00291288 -0.0951513 -0.0254038)
(0.0297686 -0.0075648 -0.0260861 0.00445781 -0.0851649 -0.0342264)
(0.0334761 -0.00252041 -0.00828572 0.00529674 -0.0798372 -0.0387728)
(0.0334869 0.00256644 0.00815368 0.00531037 -0.0798326 -0.0387972)
(0.0298022 0.00760479 0.0259553 0.00449783 -0.0851515 -0.0343001)
(0.0225487 0.0121564 0.0476395 0.00297588 -0.0951296 -0.0255246)
(0.0130716 0.0158506 0.0752385 0.000919192 -0.107163 -0.0139908)
(-0.000290141 0.0176173 0.109251 -0.000287002 -0.109279 0.000577142)
(0.000808686 -0.0158442 -0.107236 0.0130063 -0.0752939 -0.013815)
(0.0167451 -0.0142576 -0.0637258 0.016772 -0.0636655 -0.0335172)
(0.0286497 -0.0106657 -0.0347972 0.020062 -0.0526039 -0.0487117)
(0.0365053 -0.0064613 -0.016936 0.0221368 -0.0443848 -0.0586421)
(0.0401214 -0.00213718 -0.00505294 0.0231465 -0.0400925 -0.0632679)
(0.0401307 0.00217452 0.00494164 0.0231542 -0.0400891 -0.063285)
(0.036535 0.00649521 0.0168245 0.0221607 -0.0443749 -0.0586957)
(0.0287031 0.0106927 0.0346861 0.0201031 -0.052588 -0.0488062)
(0.0168279 0.0142756 0.0636172 0.0168288 -0.0636455 -0.0336567)
(0.000915043 0.0158435 0.107141 0.0130762 -0.0752723 -0.0139912)
(0.00287495 -0.0121381 -0.0951958 0.0225006 -0.0476949 -0.0253755)
(0.0200289 -0.0106688 -0.0526608 0.0286643 -0.0347317 -0.0486932)
(0.0325729 -0.0076321 -0.0257571 0.0325918 -0.0256965 -0.0651647)
(0.0398558 -0.00448074 -0.0111055 0.0346199 -0.0198504 -0.0744757)
(0.0430192 -0.00146663 -0.00305274 0.0355601 -0.0169859 -0.0785793)
(0.043027 0.00149349 0.00295764 0.0355647 -0.0169837 -0.0785917)
(0.0398813 0.00450599 0.0110095 0.0346342 -0.0198441 -0.0745155)
(0.032621 0.00765399 0.0256595 0.0326181 -0.0256858 -0.065239)
(0.0201076 0.0106859 0.0525638 0.0287043 -0.0347171 -0.0488119)
(0.00297887 0.0121424 0.0951111 0.0225543 -0.0476767 -0.0255332)
(0.00440807 -0.00757855 -0.0852113 0.0297682 -0.0260088 -0.0341762)
(0.0220958 -0.0064684 -0.0444408 0.0365106 -0.0168674 -0.0586065)
(0.0345953 -0.00448398 -0.019908 0.0398648 -0.0110438 -0.0744601)
(0.0415144 -0.00259352 -0.00761972 0.0415271 -0.00756244 -0.0830415)
(0.0444944 -0.000847384 -0.00188309 0.042342 -0.00590378 -0.0868364)
(0.0445019 0.000865267 0.00179852 0.0423445 -0.00590239 -0.0868464)
(0.0415385 0.00261115 0.00753395 0.041535 -0.00755845 -0.0830735)
(0.0346407 0.00450055 0.0198204 0.0398799 -0.0110372 -0.0745206)
(0.0221702 0.00648275 0.0443521 0.0365371 -0.0168578 -0.0587073)
(0.00450884 0.00758483 0.0851329 0.0298087 -0.0259962 -0.0343176)
(0.0052326 -0.00253522 -0.0798871 0.0334636 -0.00820444 -0.0386962)
(0.0230968 -0.00214676 -0.0401498 0.0401166 -0.00498202 -0.0632135)
(0.0355295 -0.00147268 -0.017043 0.0430189 -0.00299011 -0.0785484)
(0.0423257 -0.000850431 -0.00595967 0.0444969 -0.00182589 -0.0868225)
(0.0452535 -0.000277725 -0.00133046 0.0452584 -0.00127561 -0.0905119)
(0.045261 0.000287509 0.0012511 0.0452599 -0.00127491 -0.090521)
(0.0423496 0.000860877 0.00587891 0.0445016 -0.00182384 -0.0868512)
(0.035574 0.00148402 0.0169604 0.0430284 -0.00298663 -0.0786024)
(0.0231685 0.0021587 0.0400659 0.0401359 -0.00497672 -0.0633043)
(0.00533066 0.00254513 0.079812 0.033497 -0.0081971 -0.0388277)
(0.00523126 0.00255328 -0.0798875 0.0334597 0.00823806 -0.038691)
(0.0230952 0.00216386 -0.04015 0.0401134 0.00501488 -0.0632086)
(0.0355279 0.00148511 -0.0170432 0.043016 0.00302179 -0.0785439)
(0.0423244 0.000859108 -0.00595981 0.0444938 0.00185662 -0.0868182)
(0.0452526 0.000284127 -0.00133044 0.045255 0.00130605 -0.0905076)
(0.0452602 -0.000282188 0.00125135 0.0452563 0.00130603 -0.0905165)
(0.0423486 -0.000855826 0.00587937 0.0444978 0.00185676 -0.0868464)
(0.0355725 -0.00147921 0.0169611 0.0430244 0.00302245 -0.0785969)
(0.0231661 -0.00215467 0.0400668 0.0401314 0.00501625 -0.0632976)
(0.00532691 -0.00254072 0.0798133 0.0334922 0.00824039 -0.0388191)
(0.00440425 0.007597 -0.0852122 0.0297565 0.0260416 -0.0341607)
(0.022091 0.00648524 -0.0444414 0.0365003 0.0169001 -0.0585913)
(0.0345906 0.00449604 -0.0199084 0.0398552 0.0110758 -0.0744458)
(0.0415109 0.00260193 -0.00761994 0.041517 0.00759377 -0.0830279)
(0.0444919 0.000853673 -0.00188289 0.042331 0.00593504 -0.0868229)
(0.0444997 -0.000859893 0.00179932 0.0423328 0.00593442 -0.0868324)
(0.0415358 -0.00260603 0.00753534 0.0415226 0.00759223 -0.0830583)
(0.0346363 -0.00449578 0.0198224 0.0398668 0.0110738 -0.074503)
(0.0221631 -0.00647896 0.0443551 0.0365226 0.0168977 -0.0586857)
(0.00449779 -0.00758158 0.0851365 0.0297934 0.0260394 -0.0342912)
(0.00286946 0.0121571 -0.0951968 0.0224813 0.0477256 -0.0253508)
(0.0200216 0.0106847 -0.0526612 0.0286456 0.0347635 -0.0486673)
(0.0325658 0.00764331 -0.0257575 0.0325731 0.0257287 -0.0651389)
(0.0398506 0.00448883 -0.0111055 0.0346001 0.0198825 -0.0744508)
(0.0430154 0.001473 -0.00305204 0.035539 0.0170181 -0.0785543)
(0.0430236 -0.00148792 0.00295921 0.0355422 0.0170169 -0.0785658)
(0.0398768 -0.00450086 0.011012 0.0346104 0.0198791 -0.0744871)
(0.0326138 -0.00764946 0.0256631 0.0325925 0.0257235 -0.0652063)
(0.0200965 -0.0106827 0.0525687 0.0286769 0.0347574 -0.0487734)
(0.00296207 -0.0121417 0.0951174 0.0225264 0.0477193 -0.0254885)
(0.000802622 0.015861 -0.107236 0.0129793 0.0753212 -0.0137819)
(0.0167378 0.0142709 -0.0637253 0.0167433 0.0636946 -0.0334811)
(0.0286422 0.0106753 -0.0347969 0.0200307 0.0526344 -0.0486729)
(0.0364992 0.0064692 -0.0169353 0.0221034 0.0444164 -0.0586026)
(0.0401163 0.00214396 -0.00505128 0.0231112 0.040125 -0.0632275)
(0.0401255 -0.00216856 0.00494454 0.0231168 0.0401229 -0.0632423)
(0.0365281 -0.00649024 0.0168287 0.022121 0.0444105 -0.0586492)
(0.0286934 -0.0106889 0.0346916 0.0200606 0.0526256 -0.048754)
(0.0168148 -0.0142741 0.0636241 0.0167842 0.0636848 -0.033599)
(0.000895737 -0.0158462 0.10715 0.0130309 0.075313 -0.0139266)
(-0.000411486 0.017647 -0.109349 -0.000408086 0.10932 0.000819572)
(0.0129781 0.0158506 -0.0753569 0.000803457 0.107212 -0.0137815)
(0.0224843 0.0121381 -0.0477646 0.00287471 0.095176 -0.025359)
(0.0297608 0.00757242 -0.0260837 0.00441681 0.0851917 -0.0341776)
(0.0334672 0.00252704 -0.00828226 0.00525282 0.0798657 -0.03872)
(0.0334766 -0.00256119 0.00815862 0.00526354 0.0798627 -0.0387401)
(0.0297898 -0.00760188 0.0259617 0.00444841 0.0851831 -0.0342382)
(0.0225337 -0.0121564 0.0476472 0.00292387 0.0951625 -0.0254576)
(0.0130549 -0.0158542 0.0752468 0.00086468 0.107197 -0.0139196)
(-0.000310547 -0.0176261 0.109259 -0.000344602 0.109313 0.000655149)
(-0.00833989 -0.0156069 -0.149136 -0.00827272 -0.149014 0.0166126)
(0.00145651 -0.0118818 -0.116094 -0.00936934 -0.159366 0.00791283)
(0.00730093 -0.00901743 -0.080727 -0.00848945 -0.153665 0.00118852)
(0.0119565 -0.0056339 -0.0472615 -0.0077611 -0.146826 -0.0041954)
(0.0145187 -0.00187583 -0.0156354 -0.00734613 -0.142861 -0.00717253)
(0.0145428 0.0019808 0.0152514 -0.00731725 -0.142838 -0.00722552)
(0.0120298 0.00572778 0.0468773 -0.00767651 -0.146756 -0.00435334)
(0.00742396 0.00908403 0.0803453 -0.00835698 -0.153548 0.000933018)
(0.0016473 0.0119141 0.115722 -0.00920054 -0.159219 0.00755324)
(-0.00808923 0.0155815 0.148811 -0.00808718 -0.148877 0.0161764)
(-0.00942526 -0.0118962 -0.159469 0.00150172 -0.115934 0.00792354)
(0.00200726 -0.00972138 -0.111574 0.00206076 -0.111433 -0.00406802)
(0.00972418 -0.00757073 -0.0714145 0.00390107 -0.103768 -0.0136253)
(0.0156867 -0.00476493 -0.0397378 0.00529943 -0.0972853 -0.0209861)
(0.0188846 -0.00159487 -0.0128329 0.0060763 -0.0937454 -0.0249609)
(0.0189086 0.00168339 0.0125187 0.00609637 -0.0937285 -0.0250049)
(0.0157587 0.00484527 0.0394213 0.00535886 -0.0972338 -0.0211176)
(0.00984329 0.0076348 0.0710935 0.00399663 -0.103681 -0.0138399)
(0.00218463 0.00976363 0.111248 0.00218654 -0.111317 -0.00437117)
(-0.00920858 0.0118966 0.159165 0.00166091 -0.115802 0.00754767)
(-0.00856153 -0.00904763 -0.153764 0.00731523 -0.0805405 0.0012463)
(0.00383458 -0.00758447 -0.103901 0.00975155 -0.0712519 -0.0135861)
(0.0129203 -0.00580614 -0.0644079 0.0129586 -0.0642566 -0.0258789)
(0.0197921 -0.00360569 -0.034841 0.0153085 -0.059446 -0.0351006)
(0.0234048 -0.00120174 -0.0110639 0.0165604 -0.0569509 -0.0399653)
(0.0234282 0.00126986 0.0107937 0.016576 -0.0569405 -0.0400042)
(0.0198629 0.00366765 0.0345688 0.0153547 -0.0594138 -0.0352177)
(0.0130389 0.00585653 0.0641317 0.0130338 -0.0642005 -0.0260726)
(0.00400823 0.00761898 0.103619 0.00985102 -0.0711706 -0.0138592)
(-0.00834971 0.00904974 0.153497 0.00744788 -0.0804377 0.000901826)
(-0.00785882 -0.0056797 -0.146937 0.0119505 -0.0470496 -0.00409168)
(0.00521358 -0.00479215 -0.0974213 0.0156934 -0.0395573 -0.020907)
(0.015253 -0.00361898 -0.0595945 0.0198071 -0.0346766 -0.0350601)
(0.0226923 -0.0022266 -0.0317388 0.0227197 -0.0315817 -0.045412)
(0.026488 -0.000738436 -0.00996433 0.0241525 -0.0300078 -0.0506405)
(0.0265107 0.000784757 0.00972089 0.0241634 -0.030002 -0.0506741)
(0.0227628 0.00226915 0.0314939 0.0227531 -0.0315634 -0.0455159)
(0.015373 0.00365424 0.0593475 0.0198632 -0.0346439 -0.0352362)
(0.00538498 0.00481653 0.0971702 0.0157702 -0.039508 -0.0211552)
(-0.00764952 0.00568091 0.146698 0.012057 -0.0469842 -0.00440751)
(-0.00747613 -0.00192467 -0.14299 0.0144868 -0.015401 -0.00701062)
(0.00596764 -0.00163062 -0.0938918 0.0188651 -0.0126362 -0.0248327)
(0.0164862 -0.00122594 -0.0571034 0.023393 -0.0108889 -0.0398792)
(0.0241121 -0.000750737 -0.0301639 0.0264866 -0.00980143 -0.0505987)
(0.0278832 -0.000246463 -0.00941443 0.0278922 -0.0092566 -0.0557753)
(0.0279049 0.000270142 0.00918493 0.0278999 -0.00925426 -0.0558047)
(0.0241811 0.000773477 0.0299334 0.026512 -0.00979376 -0.0506931)
(0.0166059 0.00124643 0.0568719 0.0234382 -0.0108752 -0.040044)
(0.00613711 0.00164701 0.0936584 0.0189293 -0.0126153 -0.0250664)
(-0.00726819 0.00193171 0.142769 0.0145781 -0.0153728 -0.00730994)
(-0.00748051 0.0019346 -0.142991 0.0144786 0.0155061 -0.00699809)
(0.00596435 0.00164337 -0.0938922 0.018857 0.0127306 -0.0248214)
(0.016483 0.0012379 -0.0571034 0.0233848 0.0109783 -0.0398679)
(0.0241094 0.000762008 -0.0301635 0.0264782 0.00988876 -0.0505876)
(0.0278809 0.000258118 -0.0094135 0.0278837 0.00934395 -0.0557646)
(0.0279024 -0.000257157 0.00918632 0.027891 0.00934379 -0.0557934)
(0.0241777 -0.000759128 0.0299356 0.0265025 0.00988769 -0.0506802)
(0.0166013 -0.00123215 0.0568753 0.0234281 0.0109757 -0.0400293)
(0.0061316 -0.00163499 0.0936637 0.0189187 0.0127257 -0.0250503)
(-0.00727527 -0.00192284 0.142776 0.0145667 0.0154993 -0.00729148)
(-0.00787117 0.00569152 -0.146939 0.0119261 0.0471489 -0.00405489)
(0.00520446 0.00480571 -0.097422 0.0156691 0.0396479 -0.0208736)
(0.0152443 0.00363152 -0.0595941 0.0197822 0.0347632 -0.0350265)
(0.0226847 0.00223847 -0.0317372 0.0226935 0.0316672 -0.0453782)
(0.0264811 0.000750529 -0.00996136 0.0241253 0.0300942 -0.0506064)
(0.0265031 -0.000771684 0.00972566 0.0241349 0.0300912 -0.050638)
(0.0227529 -0.00225515 0.0315012 0.0227231 0.0316575 -0.045476)
(0.01536 -0.00364059 0.0593584 0.0198321 0.034745 -0.0351921)
(0.00536923 -0.00480537 0.0971864 0.0157377 0.0396193 -0.021107)
(-0.0076699 -0.00567419 0.14672 0.0120222 0.0471112 -0.00435232)
(-0.00857936 0.00906371 -0.153764 0.00727524 0.0806279 0.00130412)
(0.00382183 0.00759931 -0.1039 0.00971099 0.0713344 -0.0135328)
(0.0129086 0.00581944 -0.064406 0.0129162 0.0643372 -0.0258248)
(0.0197818 0.00361849 -0.0348373 0.0152632 0.059527 -0.035045)
(0.0233947 0.00121467 -0.0110577 0.0165124 0.0570343 -0.0399072)
(0.0234167 -0.00125647 0.0108033 0.0165256 0.0570281 -0.0399424)
(0.0198484 -0.0036541 0.0345827 0.0153024 0.0595074 -0.0351508)
(0.0130201 -0.00584384 0.0641515 0.0129799 0.0643023 -0.026)
(0.00398514 -0.00760943 0.103647 0.00979508 0.0712833 -0.0137802)
(-0.00837993 -0.00904767 0.153533 0.00738809 0.0805645 0.000991841)
(-0.00944532 0.011915 -0.159461 0.00144461 0.116004 0.00800071)
(0.00199452 0.00973677 -0.111568 0.00200183 0.111502 -0.00399636)
(0.00971366 0.0075847 -0.0714083 0.00383904 0.103838 -0.0135527)
(0.0156775 0.00477906 -0.0397297 0.00523401 0.0973582 -0.0209115)
(0.0188748 0.00160902 -0.0128211 0.00600718 0.0938232 -0.024882)
(0.0188966 -0.00166945 0.0125355 0.00602361 0.0938126 -0.0249202)
(0.0157429 -0.00483227 0.0394444 0.0052827 0.0973259 -0.0210256)
(0.00982271 -0.00762357 0.0711241 0.00391665 0.103783 -0.0137394)
(0.00215874 -0.00975666 0.111288 0.00210218 0.111429 -0.00426092)
(-0.00924317 -0.0118996 0.159212 0.00156967 0.115925 0.0076735)
(-0.00835662 0.0156283 -0.149114 -0.0083429 0.149056 0.0166995)
(0.00144643 0.0118989 -0.116076 -0.00944094 0.159409 0.00799451)
(0.00729274 0.00903326 -0.0807105 -0.00856455 0.153713 0.0012718)
(0.0119484 0.00565023 -0.0472436 -0.00783933 0.146883 -0.00410902)
(0.0145084 0.00189075 -0.0156137 -0.00742851 0.142927 -0.00707993)
(0.0145288 -0.00196775 0.0152788 -0.0074043 0.142912 -0.00712452)
(0.0120107 -0.00571814 0.0469117 -0.00776836 0.146839 -0.00424237)
(0.00739918 -0.00907845 0.0803868 -0.00845461 0.153642 0.00105543)
(0.00161776 -0.0119157 0.115769 -0.00930482 0.159321 0.00768706)
(-0.00812562 -0.0155961 0.148859 -0.00820166 0.148979 0.0163273)
(-0.00238161 -0.00434475 -0.154112 -0.00229245 -0.153865 0.00467406)
(2.68317e-05 -0.00465968 -0.12462 -0.00307272 -0.169394 0.00304589)
(0.00269203 -0.00402551 -0.0896851 -0.00348871 -0.168088 0.000796678)
(0.00502611 -0.00266239 -0.0539273 -0.00368919 -0.164278 -0.00133692)
(0.00636917 -0.000870777 -0.0182064 -0.00373018 -0.161816 -0.00263899)
(0.00640921 0.00104629 0.0174055 -0.00367637 -0.161765 -0.00273284)
(0.00514856 0.00281626 0.0531291 -0.00353111 -0.164125 -0.00161745)
(0.00289833 0.00412626 0.0888953 -0.00324079 -0.167837 0.000342469)
(0.000355026 0.00469446 0.123852 -0.00275809 -0.169076 0.00240306)
(-0.00194179 0.00427534 0.153443 -0.00196063 -0.153566 0.00390242)
(-0.00313399 -0.00470195 -0.169602 6.66661e-05 -0.124287 0.00306733)
(0.000108992 -0.00496865 -0.125279 0.000175401 -0.124987 -0.000284392)
(0.00400274 -0.00416076 -0.0844865 0.000422061 -0.121087 -0.0044248)
(0.00724744 -0.00270109 -0.048939 0.000765552 -0.11694 -0.00801299)
(0.00905818 -0.00088528 -0.0162317 0.00103993 -0.114517 -0.0100981)
(0.00909936 0.00103236 0.015574 0.00107868 -0.114479 -0.010178)
(0.00737133 0.00283051 0.0482777 0.000880205 -0.116826 -0.00825154)
(0.00420819 0.00425549 0.083816 0.000606861 -0.120899 -0.00481505)
(0.000418411 0.00501683 0.124597 0.000419641 -0.124737 -0.000838052)
(-0.00275989 0.00466695 0.168961 0.000373625 -0.124006 0.00238626)
(-0.00359081 -0.00411277 -0.168289 0.00267226 -0.0892896 0.000918547)
(0.000320819 -0.00419996 -0.12136 0.00402333 -0.0841451 -0.00434415)
(0.00515671 -0.00338077 -0.0801898 0.00520836 -0.0798765 -0.0103651)
(0.00910501 -0.00212642 -0.045706 0.00627292 -0.0767317 -0.0153779)
(0.0112958 -0.000683408 -0.0150355 0.00696749 -0.0750928 -0.0182633)
(0.0113371 0.000794139 0.0144703 0.00700065 -0.0750701 -0.0183378)
(0.00922968 0.0022211 0.0451382 0.00636875 -0.0766604 -0.0155984)
(0.00536527 0.00344739 0.0796093 0.00536327 -0.0797533 -0.0107285)
(0.000628877 0.00422854 0.120762 0.00423076 -0.0839718 -0.00485964)
(-0.00321889 0.00407019 0.167717 0.00295094 -0.0890745 0.000267949)
(-0.00385383 -0.0027892 -0.164504 0.00497716 -0.0534683 -0.00112333)
(0.000617213 -0.00277598 -0.11722 0.007237 -0.048553 -0.00785421)
(0.00617909 -0.00216256 -0.0770384 0.00911886 -0.0453606 -0.015298)
(0.0107233 -0.00129338 -0.0437851 0.0107677 -0.0434578 -0.021491)
(0.0133362 -0.000394457 -0.0144432 0.0118518 -0.0426466 -0.025188)
(0.0133817 0.000464907 0.0139296 0.0118792 -0.0426364 -0.025261)
(0.0108561 0.00134913 0.0432762 0.0108437 -0.0434211 -0.0216999)
(0.00639894 0.00219672 0.076518 0.00923997 -0.0452922 -0.0156389)
(0.000930997 0.00278034 0.116683 0.00740407 -0.0484521 -0.00833507)
(-0.00347291 0.00273707 0.163986 0.00521203 -0.0533386 -0.00173911)
(-0.00397018 -0.00100666 -0.162083 0.00627985 -0.0176893 -0.00230967)
(0.000838931 -0.00098194 -0.114822 0.00900428 -0.0158035 -0.00984321)
(0.00682936 -0.000747133 -0.0754092 0.0112627 -0.0146602 -0.0180921)
(0.0117736 -0.000426886 -0.0429705 0.0133245 -0.014093 -0.025098)
(0.0148514 -0.000124448 -0.0143822 0.0148662 -0.0140381 -0.0297176)
(0.0149028 0.000149775 0.0138898 0.0148937 -0.0140382 -0.0297965)
(0.0119136 0.00044394 0.0424927 0.013391 -0.0140825 -0.0253047)
(0.00705801 0.000751853 0.0749207 0.0113645 -0.0146377 -0.0184225)
(0.0011599 0.000968793 0.114319 0.00914779 -0.0157702 -0.0103077)
(-0.0035759 0.000963064 0.161599 0.00648648 -0.0176475 -0.00291058)
(-0.00399226 0.000915759 -0.162089 0.00626571 0.0179737 -0.00227345)
(0.00082563 0.000926062 -0.114825 0.0089888 0.0160409 -0.00981443)
(0.00681994 0.000713935 -0.0754098 0.0112465 0.0148703 -0.0180664)
(0.0117669 0.000409408 -0.0429688 0.0133062 0.0142903 -0.025073)
(0.0148445 0.000119971 -0.014378 0.0148451 0.0142326 -0.0296897)
(0.0148957 -0.000143026 0.0138918 0.0148721 0.014234 -0.0297678)
(0.011907 -0.000430208 0.0424975 0.0133713 0.0142834 -0.0252783)
(0.00704996 -0.000736039 0.0749289 0.0113456 0.0148527 -0.0183956)
(0.0011505 -0.000954142 0.114331 0.00912803 0.0160112 -0.0102785)
(-0.00358848 -0.000949755 0.161615 0.00646515 0.0179304 -0.00287666)
(-0.00391887 0.00270776 -0.164519 0.00493378 0.0537387 -0.00101491)
(0.000577852 0.00272587 -0.117228 0.00719026 0.0487802 -0.00776811)
(0.00615248 0.00213413 -0.0770403 0.00906943 0.0455617 -0.0152219)
(0.010706 0.0012806 -0.0437813 0.0107139 0.043645 -0.0214198)
(0.0133224 0.000393055 -0.0144345 0.0117941 0.0428287 -0.0251165)
(0.0133677 -0.000458061 0.0139409 0.0118203 0.0428208 -0.025188)
(0.0108395 -0.00133699 0.0432934 0.0107858 0.0436155 -0.0216254)
(0.00637724 -0.00218242 0.0765443 0.00918248 0.0455042 -0.0155597)
(0.000904205 -0.00276756 0.116721 0.00734416 0.0486911 -0.00824837)
(-0.00350912 -0.002728 0.164034 0.00514742 0.0536179 -0.00163829)
(-0.00369345 0.00405312 -0.168309 0.0025983 0.0895329 0.00109515)
(0.000257464 0.00416072 -0.12137 0.00394516 0.0843531 -0.00420262)
(0.00511508 0.00336011 -0.0801911 0.00512479 0.0800619 -0.0102399)
(0.00907973 0.00211991 -0.0456993 0.00618299 0.0769061 -0.0152627)
(0.0112781 0.000686345 -0.0150205 0.00687279 0.0752652 -0.0181509)
(0.0113197 -0.000785415 0.0144935 0.00690384 0.0752475 -0.0182235)
(0.00920702 -0.00220913 0.0451718 0.00627172 0.0768497 -0.0154787)
(0.00533399 -0.0034345 0.0796561 0.00526551 0.0799617 -0.0105995)
(0.000588779 -0.00421871 0.120826 0.00412959 0.0842071 -0.00471837)
(-0.00327339 -0.00407008 0.167796 0.00284258 0.0893453 0.000430802)
(-0.00326504 0.00467062 -0.169613 -5.39944e-05 0.124494 0.00331904)
(2.62904e-05 0.00494385 -0.125281 5.50888e-05 0.125166 -8.13792e-05)
(0.00395034 0.00415013 -0.0844818 0.00029691 0.121247 -0.00424725)
(0.00721663 0.00270252 -0.0489243 0.000635911 0.117093 -0.00785254)
(0.00903758 0.000893608 -0.0162053 0.000906379 0.114672 -0.00994396)
(0.00907962 -0.00102064 0.0156133 0.000942476 0.114643 -0.0100221)
(0.00734568 -0.00281809 0.0483311 0.000741746 0.117005 -0.00808742)
(0.00417243 -0.00424393 0.083885 0.000464604 0.121099 -0.00463703)
(0.000370849 -0.00501046 0.124683 0.000271713 0.124963 -0.000642562)
(-0.00282513 -0.00467498 0.169063 0.000214323 0.124258 0.00261081)
(-0.00252855 0.00435178 -0.154098 -0.00245009 0.154014 0.00497864)
(-8.24754e-05 0.00466132 -0.124607 -0.00321399 0.169518 0.00329646)
(0.00261893 0.00403603 -0.0896655 -0.00363562 0.168199 0.00101669)
(0.00498062 0.00267926 -0.0538954 -0.00384104 0.164389 -0.00113958)
(0.00633768 0.000886676 -0.0181604 -0.00388705 0.161935 -0.00245063)
(0.00638043 -0.00103308 0.0174667 -0.00383748 0.161897 -0.00254295)
(0.0051142 -0.0028084 0.0532056 -0.00369653 0.164276 -0.00141766)
(0.0028535 -0.00412342 0.0889862 -0.00341262 0.16801 0.000559119)
(0.000299073 -0.00470172 0.123953 -0.0029379 0.169271 0.00263883)
(-0.00201215 -0.00430268 0.153543 -0.00215699 0.153768 0.00416915)
(-0.00230199 -0.00328499 -0.159267 -0.00212286 -0.158821 0.00442485)
(-0.000441402 -0.00258117 -0.131188 -0.00266473 -0.177269 0.00310613)
(0.000804183 -0.00203101 -0.095999 -0.00272136 -0.178277 0.00191718)
(0.0018907 -0.00126486 -0.0585501 -0.00271851 -0.176098 0.000827804)
(0.00255248 -0.000368293 -0.0201013 -0.00266398 -0.174466 0.000111505)
(0.00261315 0.000564214 0.0186243 -0.00258775 -0.174376 -2.54024e-05)
(0.00207718 0.0014302 0.0570843 -0.00249562 -0.175829 0.000418434)
(0.00112047 0.00211858 0.0945589 -0.00237694 -0.177838 0.00125648)
(7.25669e-05 0.00258024 0.129807 -0.00223984 -0.176712 0.00216727)
(-0.00159704 0.00314524 0.158104 -0.0017137 -0.158302 0.00331074)
(-0.00276573 -0.00265802 -0.177675 -0.000388919 -0.130571 0.00315465)
(-0.00064449 -0.00235642 -0.134641 -0.000553681 -0.134084 0.00119817)
(0.00108601 -0.00195131 -0.0930991 -0.000358438 -0.132386 -0.000727576)
(0.00261682 -0.00123849 -0.0550532 -0.000145954 -0.129717 -0.00247087)
(0.00352249 -0.000367696 -0.0186148 3.4634e-05 -0.128018 -0.00355712)
(0.00358475 0.000532136 0.0173748 9.47332e-05 -0.127948 -0.00367948)
(0.0028052 0.00137404 0.0538099 3.02064e-05 -0.129506 -0.00283541)
(0.00140056 0.00203274 0.0918432 -7.87981e-05 -0.132039 -0.00132177)
(-0.000162764 0.0023711 0.133374 -0.000194585 -0.133628 0.000357349)
(-0.00217492 0.00256058 0.176501 3.84648e-05 -0.130069 0.00213645)
(-0.00288577 -0.00219178 -0.178692 0.000725569 -0.0952526 0.0021602)
(-0.000509908 -0.00202638 -0.132923 0.0010831 -0.0924434 -0.000573196)
(0.00167513 -0.00164365 -0.0905632 0.00173286 -0.0899536 -0.00340799)
(0.00358748 -0.00100354 -0.0529304 0.0023237 -0.0879117 -0.00591118)
(0.00469285 -0.000288284 -0.0177863 0.00274696 -0.0867587 -0.00743981)
(0.00475504 0.000407175 0.0167054 0.00280343 -0.0867156 -0.00755847)
(0.00377754 0.00109318 0.0518454 0.00248458 -0.0877758 -0.00626212)
(0.00199629 0.00168613 0.0894505 0.00199082 -0.0897233 -0.00398711)
(-2.79053e-05 0.00201011 0.131777 0.00142142 -0.0921251 -0.00139351)
(-0.00230007 0.0020766 0.177597 0.00116385 -0.0948663 0.00113623)
(-0.00299435 -0.00150072 -0.176575 0.00176065 -0.0576678 0.00123371)
(-0.00038688 -0.00138356 -0.13028 0.00256452 -0.0543035 -0.00217764)
(0.00218117 -0.00107562 -0.0885153 0.00358631 -0.0522584 -0.00576748)
(0.00443265 -0.000587419 -0.0516522 0.0044945 -0.0510177 -0.00892715)
(0.00578479 -0.00014275 -0.0174579 0.00514182 -0.0504022 -0.0109266)
(0.00585545 0.000203449 0.016469 0.00518991 -0.0503797 -0.0110454)
(0.00464054 0.000618156 0.0506719 0.00462717 -0.0509477 -0.00926771)
(0.00252945 0.00106827 0.0874984 0.00379875 -0.0521332 -0.0063282)