/*--------------------------------*- C++ -*----------------------------------*\
| =========                 |                                                 |
| \\      /  F ield         | OpenFOAM: The Open Source CFD Toolbox           |
|  \\    /   O peration     | Version:  2406                                  |
|   \\  /    A nd           | Website:  www.openfoam.com                      |
|    \\/     M anipulation  |                                                 |
\*---------------------------------------------------------------------------*/
FoamFile
{
    version     2.0;
    format      ascii;
    arch        "LSB;label=32;scalar=64";
    class       volSymmTensorField;
    location    "0.8";
    object      turbulenceProperties:R;
}
// * * * * * * * * * * * * * * * * * * * * * * * * * * * * * * * * * * * * * //

dimensions      [0 2 -2 0 0 0 0];

internalField   uniform (0 -0 -0 0 -0 0);

boundaryField
{
    walls
    {
        type            calculated;
        value           nonuniform List<symmTensor> 
2000
(
(-8.57757e-08 7.13892e-08 2.96501e-07 -5.4555e-08 -2.50401e-07 1.40331e-07)
(-1.48117e-07 9.04341e-08 4.68626e-07 -5.04233e-08 -2.88952e-07 1.9854e-07)
(-2.24718e-07 9.40177e-08 6.72696e-07 -3.3236e-08 -2.81223e-07 2.57954e-07)
(-2.95099e-07 7.26872e-08 8.5261e-07 -1.0633e-08 -2.06782e-07 3.05732e-07)
(-3.37989e-07 2.73042e-08 9.58331e-07 5.72908e-09 -7.62167e-08 3.3226e-07)
(-3.37982e-07 -2.73454e-08 9.58328e-07 5.72242e-09 7.62197e-08 3.32259e-07)
(-2.95081e-07 -7.272e-08 8.52602e-07 -1.06501e-08 2.06783e-07 3.05732e-07)
(-2.24696e-07 -9.40378e-08 6.72686e-07 -3.32569e-08 2.81221e-07 2.57953e-07)
(-1.481e-07 -9.04412e-08 4.68617e-07 -5.04396e-08 2.88947e-07 1.9854e-07)
(-8.57693e-08 -7.13887e-08 2.96493e-07 -5.45602e-08 2.50395e-07 1.4033e-07)
(-2.63906e-09 1.14488e-09 1.27216e-07 -2.01644e-10 -1.07011e-07 2.84071e-09)
(-4.96526e-09 8.57932e-10 1.94455e-07 2.51644e-10 -1.19423e-07 4.71361e-09)
(-6.64255e-09 9.7292e-10 2.77992e-07 -3.37792e-10 -1.15953e-07 6.98034e-09)
(-8.4452e-09 7.16213e-10 3.54077e-07 -5.12496e-10 -8.57424e-08 8.95769e-09)
(-9.51379e-09 2.83739e-10 3.99642e-07 -6.35609e-10 -3.1746e-08 1.01494e-08)
(-9.50311e-09 -3.52112e-10 3.99629e-07 -6.46761e-10 3.1748e-08 1.01499e-08)
(-8.41777e-09 -7.7099e-10 3.54044e-07 -5.41303e-10 8.57372e-08 8.95907e-09)
(-6.60956e-09 -1.00661e-09 2.77948e-07 -3.72734e-10 1.15937e-07 6.98229e-09)
(-4.93761e-09 -8.7214e-10 1.94411e-07 2.2183e-10 1.19398e-07 4.71578e-09)
(-2.62487e-09 -1.14667e-09 1.27179e-07 -2.17405e-10 1.0698e-07 2.84228e-09)
(-2.64991e-10 -6.89771e-12 4.47307e-08 -1.44622e-10 -3.74976e-08 4.09613e-10)
(-3.62304e-10 -6.51072e-11 6.6625e-08 -2.72802e-10 -4.07781e-08 6.35106e-10)
(-3.80642e-10 -1.84107e-11 9.45713e-08 -5.30211e-10 -3.93672e-08 9.10853e-10)
(-4.73059e-10 1.66663e-11 1.20855e-07 -6.79508e-10 -2.92376e-08 1.15257e-09)
(-5.51819e-10 -8.2304e-13 1.36832e-07 -7.45171e-10 -1.08608e-08 1.29699e-09)
(-5.42437e-10 -5.98933e-11 1.36804e-07 -7.55105e-10 1.0863e-08 1.29754e-09)
(-4.49169e-10 -6.48529e-11 1.2078e-07 -7.04938e-10 2.92235e-08 1.15411e-09)
(-3.52511e-10 -1.06363e-11 9.44705e-08 -5.60399e-10 3.93286e-08 9.1291e-10)
(-3.38894e-10 5.28263e-11 6.65231e-08 -2.98365e-10 4.07182e-08 6.37259e-10)
(-2.52688e-10 5.13255e-12 4.46429e-08 -1.58543e-10 3.74253e-08 4.11231e-10)
(-4.26204e-11 7.12504e-11 5.86976e-08 2.30324e-11 -4.92589e-08 1.9588e-11)
(-1.61151e-10 5.7706e-11 8.80249e-08 1.16525e-10 -5.39204e-08 4.46261e-11)
(-2.45818e-10 3.98036e-11 1.24904e-07 1.66184e-10 -5.2009e-08 7.9634e-11)
(-3.20488e-10 -6.16367e-12 1.59108e-07 2.06592e-10 -3.8488e-08 1.13897e-10)
(-3.47226e-10 -4.92238e-11 1.79733e-07 2.09914e-10 -1.42612e-08 1.37313e-10)
(-3.26578e-10 -8.40724e-11 1.79655e-07 1.87842e-10 1.42668e-08 1.38736e-10)
(-2.67712e-10 -9.97727e-11 1.589e-07 1.49898e-10 3.84485e-08 1.17814e-10)
(-1.83366e-10 -1.03679e-10 1.24627e-07 9.86346e-11 5.19026e-08 8.47311e-11)
(-1.08032e-10 -8.52309e-11 8.77507e-08 5.81662e-11 5.37588e-08 4.98655e-11)
(-1.25893e-11 -7.55995e-11 5.84695e-08 -1.11082e-11 4.90704e-08 2.36975e-11)
(1.0785e-11 -3.22531e-12 4.62361e-08 -6.82693e-11 -3.87698e-08 5.74843e-11)
(1.03815e-12 -1.41832e-12 6.88593e-08 -8.96779e-11 -4.21435e-08 8.86398e-11)
(-2.05785e-11 -6.49995e-12 9.75862e-08 -1.05123e-10 -4.06149e-08 1.25702e-10)
(-4.59963e-11 -3.42447e-11 1.24411e-07 -1.13245e-10 -3.00862e-08 1.59241e-10)
(-5.11484e-11 -9.09631e-11 1.40627e-07 -1.28511e-10 -1.11525e-08 1.7966e-10)
(-1.53199e-11 -1.40381e-10 1.40491e-07 -1.66295e-10 1.11625e-08 1.81615e-10)
(4.64039e-11 -1.5132e-10 1.2405e-07 -2.11151e-10 3.00179e-08 1.64747e-10)
(9.05321e-11 -1.07255e-10 9.71078e-08 -2.23439e-10 4.04313e-08 1.32907e-10)
(9.84722e-11 -4.93244e-11 6.83894e-08 -1.94744e-10 4.18669e-08 9.62722e-11)
(6.98646e-11 -5.88011e-12 4.58462e-08 -1.3366e-10 3.84478e-08 6.37953e-11)
(1.50876e-11 2.03856e-11 5.07068e-08 1.65218e-12 -4.25296e-08 -1.67398e-11)
(-4.20034e-11 6.15586e-12 7.55963e-08 6.06922e-11 -4.62721e-08 -1.86888e-11)
(-1.01312e-10 -5.03871e-11 1.06993e-07 1.1989e-10 -4.45255e-08 -1.85782e-11)
(-1.24119e-10 -1.36177e-10 1.36143e-07 1.39449e-10 -3.29143e-08 -1.53299e-11)
(-9.42434e-11 -2.24813e-10 1.53665e-07 1.05184e-10 -1.2178e-08 -1.09402e-11)
(-1.70357e-11 -2.72145e-10 1.53406e-07 2.42333e-11 1.2195e-08 -7.19753e-12)
(7.67607e-11 -2.65806e-10 1.35448e-07 -7.22604e-11 3.27814e-08 -4.50036e-12)
(1.43799e-10 -1.9934e-10 1.06059e-07 -1.3967e-10 4.41667e-08 -4.12975e-12)
(1.77774e-10 -1.19937e-10 7.46597e-08 -1.75121e-10 4.5721e-08 -2.65286e-12)
(1.52379e-10 -4.13537e-11 4.99085e-08 -1.49753e-10 4.18712e-08 -2.62573e-12)
(-2.67702e-11 -5.60204e-12 4.84495e-08 3.33405e-11 -4.06222e-08 -6.57028e-12)
(-8.25727e-11 -4.7654e-11 7.19136e-08 8.69457e-11 -4.39954e-08 -4.37298e-12)
(-1.28856e-10 -1.39542e-10 1.0147e-07 1.28358e-10 -4.22077e-08 4.97416e-13)
(-1.23407e-10 -2.59053e-10 1.28851e-07 1.15489e-10 -3.11354e-08 7.91805e-12)
(-5.27237e-11 -3.69688e-10 1.45204e-07 3.72272e-11 -1.14947e-08 1.54965e-11)
(6.88053e-11 -4.14814e-10 1.4474e-07 -8.99552e-11 1.15162e-08 2.11498e-11)
(1.94577e-10 -3.79367e-10 1.27594e-07 -2.19098e-10 3.08875e-08 2.45211e-11)
(2.62701e-10 -2.61025e-10 9.97519e-08 -2.85276e-10 4.15425e-08 2.25751e-11)
(2.75133e-10 -1.38771e-10 7.01389e-08 -2.95554e-10 4.29493e-08 2.04211e-11)
(2.01999e-10 -3.03783e-11 4.68863e-08 -2.1735e-10 3.93336e-08 1.53507e-11)
(-9.02106e-11 -1.09954e-11 5.06672e-08 1.15966e-10 -4.24774e-08 -2.57557e-11)
(-1.68145e-10 -8.49894e-11 7.50015e-08 2.00376e-10 -4.58722e-08 -3.22308e-11)
(-2.11162e-10 -2.14429e-10 1.05465e-07 2.47804e-10 -4.38528e-08 -3.66423e-11)
(-1.83277e-10 -3.6715e-10 1.335e-07 2.20457e-10 -3.22414e-08 -3.71799e-11)
(-7.51864e-11 -4.84193e-10 1.5005e-07 1.08113e-10 -1.18631e-08 -3.2927e-11)
(7.90741e-11 -5.1373e-10 1.49256e-07 -5.30501e-11 1.18879e-08 -2.60241e-11)
(2.2392e-10 -4.52019e-10 1.31339e-07 -2.07203e-10 3.18044e-08 -1.67176e-11)
(2.97454e-10 -3.06824e-10 1.02501e-07 -2.87172e-10 4.26976e-08 -1.02817e-11)
(3.1245e-10 -1.6636e-10 7.19143e-08 -3.09754e-10 4.40474e-08 -2.69583e-12)
(2.30632e-10 -4.08538e-11 4.79253e-08 -2.30383e-10 4.0216e-08 -2.49059e-13)
(-1.63176e-10 -2.97917e-11 5.09272e-08 1.77225e-10 -4.26856e-08 -1.40492e-11)
(-2.31356e-10 -1.26483e-10 7.51278e-08 2.49238e-10 -4.59329e-08 -1.78821e-11)
(-2.41438e-10 -2.59419e-10 1.05307e-07 2.60939e-10 -4.37693e-08 -1.95003e-11)
(-1.8634e-10 -4.0126e-10 1.32929e-07 2.05539e-10 -3.20861e-08 -1.91988e-11)
(-6.16842e-11 -4.88782e-10 1.49038e-07 7.62684e-11 -1.1767e-08 -1.45841e-11)
(8.92639e-11 -4.89986e-10 1.47905e-07 -8.07247e-11 1.17942e-08 -8.53917e-12)
(2.15948e-10 -4.09921e-10 1.29857e-07 -2.14997e-10 3.14561e-08 -9.50816e-13)
(2.68438e-10 -2.64432e-10 1.01125e-07 -2.71132e-10 4.21316e-08 2.69403e-12)
(2.69376e-10 -1.36707e-10 7.08026e-08 -2.76195e-10 4.33697e-08 6.81873e-12)
(1.85835e-10 -2.83993e-11 4.71128e-08 -1.91704e-10 3.95366e-08 5.86934e-12)
(-2.41403e-10 -4.23674e-11 5.18268e-08 2.46116e-10 -4.3438e-08 -4.71247e-12)
(-2.99839e-10 -1.58206e-10 7.63988e-08 3.07713e-10 -4.67061e-08 -7.87481e-12)
(-2.72863e-10 -2.82982e-10 1.06967e-07 2.81865e-10 -4.44519e-08 -9.00154e-12)
(-1.92567e-10 -3.98288e-10 1.34826e-07 2.0304e-10 -3.25335e-08 -1.04731e-11)
(-6.0491e-11 -4.3476e-10 1.50911e-07 6.76776e-11 -1.19021e-08 -7.18657e-12)
(6.71296e-11 -3.92566e-10 1.49492e-07 -6.46565e-11 1.19342e-08 -2.47315e-12)
(1.49371e-10 -2.90865e-10 1.30996e-07 -1.53362e-10 3.17445e-08 3.9915e-12)
(1.63127e-10 -1.64437e-10 1.01809e-07 -1.70597e-10 4.24271e-08 7.47047e-12)
(1.39473e-10 -7.25572e-11 7.11358e-08 -1.49677e-10 4.35807e-08 1.02041e-11)
(7.10801e-11 -9.99812e-12 4.72613e-08 -7.94073e-11 3.96636e-08 8.32722e-12)
(-3.04302e-10 -5.37725e-11 5.15486e-08 2.93749e-10 -4.32074e-08 1.05531e-11)
(-3.58339e-10 -1.87366e-10 7.60616e-08 3.46319e-10 -4.65044e-08 1.20205e-11)
(-3.00116e-10 -3.04952e-10 1.06565e-07 2.83372e-10 -4.4287e-08 1.67436e-11)
(-1.98933e-10 -3.97495e-10 1.34318e-07 1.80572e-10 -3.24079e-08 1.83605e-11)
(-6.00471e-11 -3.87278e-10 1.50224e-07 3.67393e-11 -1.18385e-08 2.33078e-11)
(4.6645e-11 -3.02589e-10 1.48585e-07 -7.39125e-11 1.18769e-08 2.72676e-11)
(8.53135e-11 -1.73909e-10 1.29912e-07 -1.15752e-10 3.15002e-08 3.04386e-11)
(5.85658e-11 -6.20593e-11 1.00685e-07 -8.88301e-11 4.19759e-08 3.02643e-11)
(1.43962e-13 -2.17385e-13 7.01395e-08 -2.66957e-11 4.29822e-08 2.65517e-11)
(-5.36298e-11 1.25534e-11 4.65102e-08 3.35303e-11 3.90348e-08 2.00995e-11)
(-3.07348e-10 -5.15465e-11 5.10087e-08 2.89616e-10 -4.2761e-08 1.77327e-11)
(-3.65589e-10 -1.85948e-10 7.53981e-08 3.42655e-10 -4.61092e-08 2.29345e-11)
(-3.00549e-10 -2.93124e-10 1.05775e-07 2.67609e-10 -4.39669e-08 3.29403e-11)
(-2.00127e-10 -3.72545e-10 1.33398e-07 1.61878e-10 -3.21884e-08 3.82488e-11)
(-6.73015e-11 -3.4131e-10 1.49135e-07 2.21145e-11 -1.17466e-08 4.51869e-11)
(2.33782e-11 -2.41564e-10 1.47306e-07 -7.16197e-11 1.17893e-08 4.82415e-11)
(3.99292e-11 -1.07049e-10 1.28496e-07 -8.74866e-11 3.11777e-08 4.75573e-11)
(-4.65188e-13 -1.17367e-11 9.92671e-08 -4.27828e-11 4.14069e-08 4.3248e-11)
(-6.99122e-11 3.26583e-11 6.89045e-08 3.58863e-11 4.22427e-08 3.40259e-11)
(-1.03622e-10 1.91325e-11 4.55724e-08 7.87368e-11 3.82513e-08 2.48857e-11)
(-2.09535e-10 -3.26731e-11 5.01052e-08 1.91102e-10 -4.20074e-08 1.8433e-11)
(-2.6241e-10 -1.29462e-10 7.41281e-08 2.3662e-10 -4.53404e-08 2.57904e-11)
(-2.18323e-10 -2.02167e-10 1.04059e-07 1.7966e-10 -4.32607e-08 3.8663e-11)
(-1.54584e-10 -2.62877e-10 1.31272e-07 1.07936e-10 -3.16791e-08 4.66473e-11)
(-6.27832e-11 -2.45028e-10 1.46707e-07 8.90082e-12 -1.15528e-08 5.38824e-11)
(4.16916e-12 -1.809e-10 1.44764e-07 -5.88028e-11 1.15949e-08 5.46336e-11)
(2.37387e-11 -8.97437e-11 1.26069e-07 -7.32727e-11 3.0603e-08 4.9534e-11)
(7.36704e-12 -2.47846e-11 9.71731e-08 -4.82728e-11 4.05483e-08 4.09058e-11)
(-3.40851e-11 1.20457e-11 6.72938e-08 5.16734e-12 4.12671e-08 2.89178e-11)
(-4.69629e-11 6.91834e-12 4.44358e-08 2.72824e-11 3.72989e-08 1.96805e-11)
(-2.84175e-11 -4.40992e-13 4.93616e-08 1.4601e-11 -4.1385e-08 1.38165e-11)
(-5.12276e-11 -1.84455e-11 7.30301e-08 3.1497e-11 -4.46718e-08 1.97306e-11)
(-4.37842e-11 -2.29372e-11 1.02506e-07 1.48016e-11 -4.26184e-08 2.89826e-11)
(-4.68755e-11 -4.31415e-11 1.29308e-07 1.24537e-11 -3.12092e-08 3.44218e-11)
(-3.60138e-11 -5.71326e-11 1.44507e-07 -1.2375e-12 -1.1383e-08 3.72513e-11)
(-1.4549e-11 -7.08459e-11 1.42591e-07 -1.93164e-11 1.14179e-08 3.38654e-11)
(1.54566e-11 -7.31349e-11 1.24185e-07 -4.14373e-11 3.01432e-08 2.59807e-11)
(4.57238e-11 -6.26034e-11 9.57377e-08 -6.22407e-11 3.99473e-08 1.6517e-11)
(6.31195e-11 -3.8902e-11 6.63294e-08 -7.12035e-11 4.06741e-08 8.084e-12)
(7.12425e-11 -1.60239e-11 4.38245e-08 -7.45963e-11 3.67832e-08 3.35387e-12)
(1.58018e-10 2.96874e-11 4.87919e-08 -1.70608e-10 -4.09082e-08 1.25904e-11)
(1.95563e-10 1.07883e-10 7.22241e-08 -2.10893e-10 -4.41805e-08 1.53303e-11)
(1.80374e-10 1.99535e-10 1.01424e-07 -1.96717e-10 -4.21725e-08 1.63427e-11)
(1.09486e-10 2.5584e-10 1.28029e-07 -1.23687e-10 -3.09082e-08 1.42011e-11)
(1.69016e-11 2.31907e-10 1.43227e-07 -2.49369e-11 -1.12952e-08 8.0353e-12)
(-3.88343e-11 1.42072e-10 1.41553e-07 4.01101e-11 1.13165e-08 -1.27581e-12)
(-2.57322e-11 2.73717e-11 1.2356e-07 3.65014e-11 2.99696e-08 -1.07692e-11)
(3.65164e-11 -4.4848e-11 9.55408e-08 -1.83206e-11 3.98434e-08 -1.81958e-11)
(1.15108e-10 -6.37549e-11 6.64184e-08 -9.56954e-11 4.07114e-08 -1.94124e-11)
(1.50296e-10 -3.08646e-11 4.40104e-08 -1.3289e-10 3.69318e-08 -1.74057e-11)
(2.51917e-10 4.1921e-11 4.81325e-08 -2.73178e-10 -4.03613e-08 2.12606e-11)
(3.65799e-10 1.93742e-10 7.15009e-08 -3.8847e-10 -4.37485e-08 2.2672e-11)
(3.68762e-10 3.84158e-10 1.00782e-07 -3.84775e-10 -4.19201e-08 1.60122e-11)
(2.67021e-10 5.5095e-10 1.27646e-07 -2.71901e-10 -3.08345e-08 4.88007e-12)
(8.39128e-11 5.81817e-10 1.43291e-07 -7.17951e-11 -1.13251e-08 -1.21176e-11)
(-7.68952e-11 4.75832e-10 1.42164e-07 1.05684e-10 1.13341e-08 -2.87888e-11)
(-1.38974e-10 2.80484e-10 1.24665e-07 1.79914e-10 3.02015e-08 -4.09401e-11)
(-9.91506e-11 1.05014e-10 9.69322e-08 1.45633e-10 4.0388e-08 -4.64826e-11)
(7.19635e-12 -3.54911e-12 6.77897e-08 3.50264e-11 4.15231e-08 -4.22227e-11)
(8.49659e-11 -1.91997e-11 4.51471e-08 -5.02332e-11 3.78744e-08 -3.47327e-11)
(1.72166e-10 2.55246e-11 4.68949e-08 -2.06383e-10 -3.93359e-08 3.42165e-11)
(3.19715e-10 1.69239e-10 7.01868e-08 -3.58483e-10 -4.29697e-08 3.87686e-11)
(3.69634e-10 3.83706e-10 9.97512e-08 -4.01892e-10 -4.15237e-08 3.22577e-11)
(3.0326e-10 6.15415e-10 1.27262e-07 -3.21326e-10 -3.0776e-08 1.80664e-11)
(1.146e-10 7.33358e-10 1.43804e-07 -1.10239e-10 -1.14021e-08 -4.36134e-12)
(-1.01872e-10 6.94066e-10 1.43574e-07 1.27761e-10 1.14082e-08 -2.58893e-11)
(-2.48818e-10 5.1813e-10 1.26725e-07 2.90258e-10 3.06607e-08 -4.14398e-11)
(-2.77763e-10 2.94956e-10 9.9236e-08 3.24983e-10 4.13103e-08 -4.72203e-11)
(-2.07004e-10 1.11953e-10 6.99211e-08 2.50607e-10 4.27978e-08 -4.36036e-11)
(-1.01333e-10 1.52994e-11 4.68772e-08 1.37063e-10 3.93127e-08 -3.57305e-11)
(-5.94908e-11 -1.27547e-11 4.5204e-08 2.15311e-11 -3.79315e-08 3.79597e-11)
(2.83016e-11 2.02993e-11 6.82089e-08 -7.60319e-11 -4.17921e-08 4.77303e-11)
(1.09557e-10 1.25041e-10 9.78867e-08 -1.59805e-10 -4.07915e-08 5.02475e-11)
(1.31866e-10 2.8368e-10 1.26004e-07 -1.74688e-10 -3.05183e-08 4.28225e-11)
(6.38081e-11 4.32129e-10 1.43517e-07 -9.02478e-11 -1.14238e-08 2.64397e-11)
(-7.36885e-11 4.97301e-10 1.44299e-07 6.58072e-11 1.14268e-08 7.88131e-12)
(-2.20396e-10 4.58357e-10 1.28184e-07 2.28037e-10 3.09812e-08 -7.64097e-12)
(-3.05506e-10 3.22499e-10 1.00984e-07 3.19914e-10 4.20122e-08 -1.44073e-11)
(-3.21777e-10 1.73605e-10 7.15636e-08 3.38291e-10 4.37842e-08 -1.65133e-11)
(-2.47514e-10 4.44989e-11 4.82241e-08 2.61319e-10 4.04321e-08 -1.38055e-11)
(-2.38775e-10 -3.95071e-11 4.3665e-08 2.09491e-10 -3.66496e-08 2.92849e-11)
(-2.5317e-10 -1.23221e-10 6.61558e-08 2.11551e-10 -4.05628e-08 4.16189e-11)
(-1.82306e-10 -1.64407e-10 9.55157e-08 1.27424e-10 -3.98444e-08 5.48815e-11)
(-9.61777e-11 -1.52125e-10 1.23741e-07 3.69433e-11 -3.00171e-08 5.92344e-11)
(-2.36044e-11 -5.09374e-11 1.41759e-07 -3.35876e-11 -1.13276e-08 5.7192e-11)
(-2.12228e-11 7.39743e-11 1.43218e-07 -2.78363e-11 1.13074e-08 4.90591e-11)
(-9.39649e-11 1.79184e-10 1.27677e-07 5.56375e-11 3.08389e-08 3.83273e-11)
(-1.86228e-10 1.89198e-10 1.00799e-07 1.55198e-10 4.19276e-08 3.10299e-11)
(-2.768e-10 1.47077e-10 7.14986e-08 2.54929e-10 4.37439e-08 2.18709e-11)
(-2.65466e-10 4.95888e-11 4.82033e-08 2.48741e-10 4.04113e-08 1.67246e-11)
(-1.26393e-10 -1.75284e-11 4.26595e-08 1.113e-10 -3.58081e-08 1.50932e-11)
(-1.71864e-10 -8.1263e-11 6.45879e-08 1.4669e-10 -3.96167e-08 2.51737e-11)
(-1.43763e-10 -1.24435e-10 9.33042e-08 1.0207e-10 -3.8946e-08 4.16925e-11)
(-9.80172e-11 -1.45769e-10 1.21083e-07 4.38189e-11 -2.94031e-08 5.41983e-11)
(-4.01494e-11 -8.93246e-11 1.38947e-07 -2.37628e-11 -1.11322e-08 6.39123e-11)
(-2.56537e-11 6.59793e-12 1.40542e-07 -4.07571e-11 1.10753e-08 6.64109e-11)
(-7.69323e-11 1.11594e-10 1.253e-07 1.55052e-11 3.02569e-08 6.1427e-11)
(-1.55297e-10 1.41537e-10 9.87845e-08 1.01083e-10 4.10934e-08 5.42138e-11)
(-2.50184e-10 1.26357e-10 6.98775e-08 2.09583e-10 4.2761e-08 4.06003e-11)
(-2.46908e-10 4.36318e-11 4.69777e-08 2.16391e-10 3.93849e-08 3.05164e-11)
(2.57883e-10 4.75175e-11 4.22368e-08 -2.60514e-10 -3.54491e-08 2.63196e-12)
(2.91691e-10 1.55902e-10 6.37656e-08 -2.99302e-10 -3.91101e-08 7.61022e-12)
(2.68239e-10 2.86844e-10 9.18603e-08 -2.85812e-10 -3.83425e-08 1.75728e-11)
(1.8233e-10 4.05743e-10 1.18983e-07 -2.12712e-10 -2.88958e-08 3.03822e-11)
(4.6138e-11 4.74129e-10 1.36326e-07 -8.82067e-11 -1.09257e-08 4.20687e-11)
(-1.05878e-10 4.77828e-10 1.37698e-07 5.62181e-11 1.08492e-08 4.96602e-11)
(-2.43116e-10 4.23089e-10 1.22567e-07 1.94874e-10 2.95986e-08 4.82424e-11)
(-3.18937e-10 2.96643e-10 9.64357e-08 2.7593e-10 4.01213e-08 4.30073e-11)
(-3.56698e-10 1.75052e-10 6.80515e-08 3.26564e-10 4.16493e-08 3.01341e-11)
(-2.83074e-10 4.39359e-11 4.56539e-08 2.61861e-10 3.82758e-08 2.12126e-11)
(6.2653e-10 1.06774e-10 4.22228e-08 -6.23372e-10 -3.54303e-08 -3.15756e-12)
(7.85512e-10 4.07158e-10 6.36203e-08 -7.82775e-10 -3.90061e-08 -2.73669e-12)
(7.32002e-10 7.45632e-10 9.13989e-08 -7.28094e-10 -3.81301e-08 -3.90769e-12)
(5.23455e-10 1.0633e-09 1.18052e-07 -5.26777e-10 -2.86485e-08 3.32193e-12)
(1.66112e-10 1.18545e-09 1.34932e-07 -1.74564e-10 -1.0795e-08 8.45157e-12)
(-1.98076e-10 1.10557e-09 1.36032e-07 1.83168e-10 1.07316e-08 1.49083e-11)
(-4.60959e-10 8.62529e-10 1.20934e-07 4.46352e-10 2.92115e-08 1.46069e-11)
(-5.50192e-10 5.31586e-10 9.51016e-08 5.36835e-10 3.9568e-08 1.33565e-11)
(-5.24723e-10 2.60236e-10 6.71242e-08 5.19345e-10 4.10801e-08 5.3789e-12)
(-3.59997e-10 5.26717e-11 4.5065e-08 3.57996e-10 3.77798e-08 2.00118e-12)
(7.26755e-10 1.1982e-10 4.23036e-08 -7.24539e-10 -3.54946e-08 -2.21574e-12)
(9.62304e-10 4.94985e-10 6.37783e-08 -9.58907e-10 -3.90898e-08 -3.39691e-12)
(9.16301e-10 9.2209e-10 9.15974e-08 -9.03984e-10 -3.81934e-08 -1.2317e-11)
(6.79967e-10 1.3503e-09 1.18167e-07 -6.68608e-10 -2.8652e-08 -1.13592e-11)
(2.33014e-10 1.52573e-09 1.34908e-07 -2.1847e-10 -1.07704e-08 -1.45435e-11)
(-2.35304e-10 1.43015e-09 1.35903e-07 2.47759e-10 1.07377e-08 -1.24548e-11)
(-5.71662e-10 1.10642e-09 1.20826e-07 5.8524e-10 2.91921e-08 -1.35778e-11)
(-6.78852e-10 6.71322e-10 9.51215e-08 6.90232e-10 3.95742e-08 -1.13795e-11)
(-6.288e-10 3.17125e-10 6.72912e-08 6.43172e-10 4.11753e-08 -1.43723e-11)
(-4.16302e-10 6.18188e-11 4.5307e-08 4.28764e-10 3.79773e-08 -1.2462e-11)
(5.69463e-10 9.13251e-11 4.2278e-08 -5.6973e-10 -3.5477e-08 2.67433e-13)
(7.91383e-10 4.04876e-10 6.38835e-08 -7.90941e-10 -3.91529e-08 -4.42879e-13)
(7.71802e-10 7.70154e-10 9.19074e-08 -7.61602e-10 -3.83174e-08 -1.01997e-11)
(5.96661e-10 1.16785e-09 1.18665e-07 -5.84901e-10 -2.87632e-08 -1.17602e-11)
(2.18725e-10 1.36175e-09 1.35559e-07 -2.00378e-10 -1.08125e-08 -1.83474e-11)
(-2.04612e-10 1.31599e-09 1.36651e-07 2.23552e-10 1.08034e-08 -1.894e-11)
(-5.30759e-10 1.05007e-09 1.21629e-07 5.51341e-10 2.93869e-08 -2.05816e-11)
(-6.52961e-10 6.56222e-10 9.59356e-08 6.69681e-10 3.99073e-08 -1.67206e-11)
(-6.27912e-10 3.21948e-10 6.80627e-08 6.45548e-10 4.16384e-08 -1.76363e-11)
(-4.32538e-10 6.78491e-11 4.59861e-08 4.46417e-10 3.85391e-08 -1.38792e-11)
(3.76607e-10 6.04869e-11 4.22163e-08 -3.72248e-10 -3.54339e-08 -4.35834e-12)
(5.20134e-10 2.65125e-10 6.39335e-08 -5.15061e-10 -3.91902e-08 -5.0731e-12)
(5.01812e-10 4.95843e-10 9.21353e-08 -4.90424e-10 -3.84167e-08 -1.1388e-11)
(3.98255e-10 7.6737e-10 1.19105e-07 -3.87785e-10 -2.88704e-08 -1.04702e-11)
(1.54988e-10 9.22495e-10 1.36189e-07 -1.41762e-10 -1.08601e-08 -1.32259e-11)
(-1.3792e-10 9.30047e-10 1.37389e-07 1.49395e-10 1.08666e-08 -1.14746e-11)
(-3.89587e-10 7.83088e-10 1.22379e-07 4.01117e-10 2.95731e-08 -1.15304e-11)
(-5.07839e-10 5.16107e-10 9.66102e-08 5.15201e-10 4.01911e-08 -7.36234e-12)
(-5.248e-10 2.72778e-10 6.86379e-08 5.34046e-10 4.19912e-08 -9.24654e-12)
(-3.83518e-10 6.33718e-11 4.64659e-08 3.90169e-10 3.89386e-08 -6.65061e-12)
(2.97613e-10 5.24628e-11 4.25662e-08 -2.69357e-10 -3.57298e-08 -2.8256e-11)
(3.24513e-10 1.65334e-10 6.43991e-08 -2.91248e-10 -3.94702e-08 -3.32651e-11)
(2.39271e-10 2.28908e-10 9.26515e-08 -2.0018e-10 -3.86213e-08 -3.90903e-11)
(1.59375e-10 2.8785e-10 1.19616e-07 -1.24502e-10 -2.89806e-08 -3.48729e-11)
(5.78911e-11 2.82264e-10 1.36645e-07 -2.69246e-11 -1.08799e-08 -3.09665e-11)
(-2.77581e-11 2.50427e-10 1.37758e-07 5.11786e-11 1.09139e-08 -2.34205e-11)
(-8.85509e-11 1.93944e-10 1.2266e-07 1.06821e-10 2.96597e-08 -1.82705e-11)
(-1.08996e-10 1.1724e-10 9.68118e-08 1.21105e-10 4.02903e-08 -1.21083e-11)
(-1.15691e-10 6.341e-11 6.88206e-08 1.26644e-10 4.21154e-08 -1.0953e-11)
(-6.40995e-11 1.05616e-11 4.66214e-08 7.07483e-11 3.90748e-08 -6.64884e-12)
(2.16718e-10 4.4863e-11 4.44669e-08 -1.43087e-10 -3.73067e-08 -7.3631e-11)
(8.08698e-11 3.80929e-11 6.67016e-08 8.70866e-12 -4.08398e-08 -8.95784e-11)
(-1.26805e-10 -1.51542e-10 9.51208e-08 2.29858e-10 -3.96018e-08 -1.03053e-10)
(-1.94325e-10 -4.39106e-10 1.2196e-07 2.95292e-10 -2.95021e-08 -1.00967e-10)
(-9.27977e-11 -7.64256e-10 1.38671e-07 1.85394e-10 -1.10029e-08 -9.25962e-11)
(1.72304e-10 -9.43327e-10 1.39396e-07 -9.50427e-11 1.10716e-08 -7.7261e-11)
(4.86333e-10 -9.2326e-10 1.23945e-07 -4.27492e-10 2.99894e-08 -5.88415e-11)
(6.9423e-10 -6.84658e-10 9.77852e-08 -6.51494e-10 4.07067e-08 -4.27363e-11)
(7.59287e-10 -3.85912e-10 6.95414e-08 -7.33809e-10 4.25669e-08 -2.54779e-11)
(6.2926e-10 -1.05157e-10 4.70635e-08 -6.16118e-10 3.94588e-08 -1.31423e-11)
(-6.50245e-11 -1.40455e-12 4.86834e-08 1.86573e-10 -4.08049e-08 -1.21549e-10)
(-3.81662e-10 -2.08852e-10 7.18903e-08 5.32186e-10 -4.39416e-08 -1.50524e-10)
(-6.70113e-10 -7.2341e-10 1.00942e-07 8.44301e-10 -4.1944e-08 -1.74188e-10)
(-6.57942e-10 -1.40952e-09 1.27817e-07 8.35891e-10 -3.08476e-08 -1.77949e-10)
(-2.70023e-10 -2.05841e-09 1.44025e-07 4.35016e-10 -1.13768e-08 -1.64993e-10)
(4.15736e-10 -2.35083e-09 1.43871e-07 -2.77387e-10 1.14575e-08 -1.3835e-10)
(1.14374e-09 -2.19239e-09 1.27351e-07 -1.04513e-09 3.08289e-08 -9.86159e-11)
(1.57156e-09 -1.55871e-09 1.00099e-07 -1.50496e-09 4.16797e-08 -6.65965e-11)
(1.68273e-09 -8.60079e-10 7.08642e-08 -1.65526e-09 4.33887e-08 -2.74754e-11)
(1.3019e-09 -2.13975e-10 4.7607e-08 -1.29287e-09 3.99381e-08 -9.03447e-12)
(-5.39867e-10 -8.84864e-11 5.48475e-08 6.79571e-10 -4.59236e-08 -1.39704e-10)
(-9.65091e-10 -5.23953e-10 7.95256e-08 1.14037e-09 -4.85236e-08 -1.75279e-10)
(-1.19106e-09 -1.27596e-09 1.09645e-07 1.39191e-09 -4.54702e-08 -2.00844e-10)
(-1.01914e-09 -2.17767e-09 1.36698e-07 1.22608e-09 -3.29115e-08 -2.06936e-10)
(-3.78421e-10 -2.89703e-09 1.52098e-07 5.64405e-10 -1.19542e-08 -1.85983e-10)
(5.52372e-10 -3.11383e-09 1.50335e-07 -4.04986e-10 1.20146e-08 -1.47387e-10)
(1.44102e-09 -2.76378e-09 1.31789e-07 -1.35054e-09 3.19325e-08 -9.04807e-11)
(1.8885e-09 -1.87556e-09 1.02581e-07 -1.83938e-09 4.27396e-08 -4.91169e-11)
(1.94941e-09 -9.98251e-10 7.17792e-08 -1.94752e-09 4.39728e-08 -1.89082e-12)
(1.41083e-09 -2.2715e-10 4.76015e-08 -1.42223e-09 3.99622e-08 1.1398e-11)
(-9.40111e-10 -1.70025e-10 6.08999e-08 1.03787e-09 -5.09557e-08 -9.77603e-11)
(-1.29419e-09 -7.05507e-10 8.70879e-08 1.42262e-09 -5.30786e-08 -1.28426e-10)
(-1.30522e-09 -1.40125e-09 1.1831e-07 1.45113e-09 -4.89955e-08 -1.45907e-10)
(-9.93267e-10 -2.13864e-09 1.45454e-07 1.14616e-09 -3.495e-08 -1.52895e-10)
(-3.27192e-10 -2.5815e-09 1.59688e-07 4.57288e-10 -1.24835e-08 -1.30096e-10)
(4.65441e-10 -2.58168e-09 1.55767e-07 -3.7251e-10 1.2513e-08 -9.2931e-11)
(1.12498e-09 -2.15418e-09 1.34672e-07 -1.08449e-09 3.2691e-08 -4.04868e-11)
(1.38658e-09 -1.38009e-09 1.03284e-07 -1.37964e-09 4.30889e-08 -6.94859e-12)
(1.37012e-09 -7.05169e-10 7.10726e-08 -1.39774e-09 4.35834e-08 2.76226e-11)
(9.10702e-10 -1.43304e-10 4.64136e-08 -9.40335e-10 3.89942e-08 2.96331e-11)
(-9.66722e-10 -1.87603e-10 6.38602e-08 9.57749e-10 -5.34316e-08 8.97305e-12)
(-1.0517e-09 -5.77689e-10 9.10629e-08 1.0566e-09 -5.55016e-08 -4.89603e-12)
(-7.92626e-10 -8.58307e-10 1.23133e-07 8.03677e-10 -5.09814e-08 -1.10506e-11)
(-4.76938e-10 -1.05731e-09 1.50428e-07 5.02708e-10 -3.61183e-08 -2.57703e-11)
(-1.08874e-10 -1.00558e-09 1.63785e-07 1.29818e-10 -1.27603e-08 -2.09448e-11)
(1.6341e-10 -8.21345e-10 1.58198e-07 -1.53245e-10 1.2763e-08 -1.01651e-11)
(3.05448e-10 -5.72814e-10 1.35229e-07 -3.1612e-10 3.28835e-08 1.06727e-11)
(3.05283e-10 -3.06373e-10 1.02434e-07 -3.2672e-10 4.27872e-08 2.1437e-11)
(2.7569e-10 -1.47554e-10 6.95433e-08 -3.08314e-10 4.26839e-08 3.2624e-11)
(1.1199e-10 -1.48108e-11 4.48987e-08 -1.39147e-10 3.77417e-08 2.71576e-11)
(-5.0225e-10 -1.11393e-10 6.11389e-08 3.74373e-10 -5.12015e-08 1.27877e-10)
(-2.41894e-10 -1.39437e-10 8.83836e-08 9.93276e-11 -5.39562e-08 1.42566e-10)
(2.00619e-10 2.02209e-10 1.20963e-07 -3.53482e-10 -5.01658e-08 1.52862e-10)
(3.59166e-10 7.17643e-10 1.48969e-07 -4.91987e-10 -3.58268e-08 1.32821e-10)
(1.99145e-10 1.29506e-09 1.6276e-07 -3.08953e-10 -1.27052e-08 1.09808e-10)
(-2.52607e-10 1.57042e-09 1.57213e-07 1.71072e-10 1.26863e-08 8.15356e-11)
(-7.5002e-10 1.46523e-09 1.34051e-07 6.93235e-10 3.26153e-08 5.67848e-11)
(-1.02768e-09 1.02248e-09 1.01139e-07 9.88726e-10 4.2268e-08 3.89577e-11)
(-1.03959e-09 5.26991e-10 6.83344e-08 1.01665e-09 4.19574e-08 2.29458e-11)
(-8.12773e-10 1.34097e-10 4.39631e-08 7.9985e-10 3.69596e-08 1.29225e-11)
(3.47014e-10 4.47969e-11 5.38636e-08 -5.25458e-10 -4.51716e-08 1.78444e-10)
(8.57314e-10 4.56723e-10 7.97429e-08 -1.07686e-09 -4.88037e-08 2.1955e-10)
(1.27541e-09 1.35057e-09 1.11782e-07 -1.52452e-09 -4.649e-08 2.49104e-10)
(1.16879e-09 2.45376e-09 1.40442e-07 -1.41125e-09 -3.38913e-08 2.42463e-10)
(4.65594e-10 3.38194e-09 1.55754e-07 -6.74051e-10 -1.22389e-08 2.08457e-10)
(-6.28893e-10 3.66435e-09 1.52101e-07 4.71194e-10 1.22268e-08 1.57699e-10)
(-1.6709e-09 3.22942e-09 1.3076e-07 1.57337e-09 3.17917e-08 9.75311e-11)
(-2.18672e-09 2.17631e-09 9.93148e-08 2.12952e-09 4.14933e-08 5.71936e-11)
(-2.21448e-09 1.13216e-09 6.75662e-08 2.19979e-09 4.14748e-08 1.46925e-11)
(-1.64454e-09 2.6911e-10 4.38115e-08 1.64428e-09 3.68157e-08 2.61908e-13)
(1.06674e-09 1.83609e-10 4.59782e-08 -1.20717e-09 -3.86049e-08 1.40425e-10)
(1.62607e-09 8.73675e-10 6.97577e-08 -1.81344e-09 -4.27846e-08 1.87369e-10)
(1.83257e-09 1.94492e-09 1.00311e-07 -2.05579e-09 -4.18254e-08 2.23217e-10)
(1.49726e-09 3.1756e-09 1.28905e-07 -1.73742e-09 -3.12075e-08 2.40164e-10)
(5.35515e-10 4.06001e-09 1.45715e-07 -7.5508e-10 -1.15308e-08 2.19565e-10)
(-7.50526e-10 4.23894e-09 1.44623e-07 5.72208e-10 1.15685e-08 1.78318e-10)
(-1.91742e-09 3.67601e-09 1.26142e-07 1.80369e-09 3.06322e-08 1.13727e-10)
(-2.47868e-09 2.46067e-09 9.71081e-08 2.4088e-09 4.05435e-08 6.98763e-11)
(-2.55068e-09 1.30703e-09 6.70588e-08 2.53593e-09 4.11408e-08 1.47482e-11)
(-1.87232e-09 3.0526e-10 4.4167e-08 1.87344e-09 3.70849e-08 -1.12539e-12)
(1.16312e-09 2.11154e-10 4.09824e-08 -1.22829e-09 -3.44212e-08 6.51632e-11)
(1.56644e-09 8.48154e-10 6.28944e-08 -1.66506e-09 -3.85924e-08 9.86145e-11)
(1.53056e-09 1.63582e-09 9.15801e-08 -1.65373e-09 -3.82108e-08 1.23172e-10)
(1.14582e-09 2.47465e-09 1.19095e-07 -1.29728e-09 -2.88635e-08 1.51464e-10)
(3.58377e-10 2.94524e-09 1.36273e-07 -5.07942e-10 -1.08192e-08 1.49565e-10)
(-5.52522e-10 2.93693e-09 1.369e-07 4.1878e-10 1.09149e-08 1.33741e-10)
(-1.32166e-09 2.48138e-09 1.20905e-07 1.22961e-09 2.93289e-08 9.20585e-11)
(-1.66282e-09 1.63178e-09 9.42698e-08 1.59931e-09 3.93284e-08 6.35126e-11)
(-1.74069e-09 8.88849e-10 6.60574e-08 1.72248e-09 4.05026e-08 1.82055e-11)
(-1.24774e-09 1.99807e-10 4.41533e-08 1.24138e-09 3.70441e-08 6.35612e-12)
(5.9098e-10 1.14519e-10 3.93681e-08 -6.0228e-10 -3.30556e-08 1.13e-11)
(7.34855e-10 4.09236e-10 6.03622e-08 -7.63584e-10 -3.70203e-08 2.87285e-11)
(5.92709e-10 6.58328e-10 8.79303e-08 -6.31512e-10 -3.66754e-08 3.88032e-11)
(3.7393e-10 8.78355e-10 1.14458e-07 -4.34274e-10 -2.77366e-08 6.03444e-11)
(6.48532e-11 8.7364e-10 1.31345e-07 -1.30393e-10 -1.04406e-08 6.55395e-11)
(-1.80796e-10 7.27873e-10 1.3251e-07 1.15695e-10 1.05404e-08 6.5101e-11)
(-3.15439e-10 5.21489e-10 1.17668e-07 2.66823e-10 2.85153e-08 4.86163e-11)
(-3.14921e-10 2.81645e-10 9.22912e-08 2.78347e-10 3.84762e-08 3.65737e-11)
(-3.29571e-10 1.62208e-10 6.50966e-08 3.16186e-10 3.98959e-08 1.3385e-11)
(-1.6117e-10 1.81777e-11 4.37667e-08 1.53575e-10 3.67016e-08 7.59458e-12)
(-1.11438e-10 -1.29484e-11 3.92996e-08 1.20659e-10 -3.29898e-08 -9.22008e-12)
(-1.59837e-10 -7.04661e-11 5.98679e-08 1.67668e-10 -3.67093e-08 -7.8318e-12)
(-2.51782e-10 -2.33699e-10 8.67846e-08 2.6158e-10 -3.62004e-08 -9.79749e-12)
(-2.45542e-10 -4.3829e-10 1.12594e-07 2.51705e-10 -2.73026e-08 -6.16287e-12)
(-1.32763e-10 -6.80418e-10 1.29018e-07 1.40851e-10 -1.02911e-08 -8.08804e-12)
(1.08215e-10 -8.42024e-10 1.30183e-07 -9.44593e-11 1.03063e-08 -1.37559e-11)
(4.1603e-10 -8.58772e-10 1.15776e-07 -3.93054e-10 2.8002e-08 -2.2976e-11)
(6.65391e-10 -6.82173e-10 9.10429e-08 -6.32261e-10 3.7906e-08 -3.31306e-11)
(7.89919e-10 -4.11649e-10 6.43976e-08 -7.5336e-10 3.94297e-08 -3.65596e-11)
(7.44378e-10 -1.35567e-10 4.3407e-08 -7.11117e-10 3.63798e-08 -3.32611e-11)
(-3.67481e-10 -7.01924e-11 4.00867e-08 3.3361e-10 -3.36673e-08 3.38708e-11)
(-3.51098e-10 -1.8322e-10 6.1139e-08 3.25937e-10 -3.74979e-08 2.51605e-11)
(-2.77843e-10 -2.8648e-10 8.85054e-08 2.67369e-10 -3.69214e-08 1.04745e-11)
(-1.82397e-10 -3.84607e-10 1.14702e-07 1.95231e-10 -2.78195e-08 -1.28345e-11)
(-5.47535e-11 -4.69329e-10 1.31489e-07 9.59543e-11 -1.05053e-08 -4.12008e-11)
(1.12936e-10 -5.52522e-10 1.33096e-07 -3.68162e-11 1.05004e-08 -7.612e-11)
(3.48747e-10 -6.26539e-10 1.19185e-07 -2.42857e-10 2.877e-08 -1.0589e-10)
(5.93464e-10 -5.65597e-10 9.47935e-08 -4.62132e-10 3.94005e-08 -1.31332e-10)
(8.73336e-10 -4.42552e-10 6.80762e-08 -7.43724e-10 4.16272e-08 -1.29611e-10)
(9.12092e-10 -1.66235e-10 4.64716e-08 -7.98713e-10 3.89438e-08 -1.13379e-10)
(-5.39897e-10 -8.93799e-11 3.67431e-08 5.3067e-10 -3.09386e-08 9.22696e-12)