/*--------------------------------*- C++ -*----------------------------------*\
| =========                 |                                                 |
| \\      /  F ield         | OpenFOAM: The Open Source CFD Toolbox           |
|  \\    /   O peration     | Version:  2406                                  |
|   \\  /    A nd           | Website:  www.openfoam.com                      |
|    \\/     M anipulation  |                                                 |
\*---------------------------------------------------------------------------*/
FoamFile
{
    version     2.0;
    format      ascii;
    arch        "LSB;label=32;scalar=64";
    class       volVectorField;
    location    "0.8";
    object      U;
}
// * * * * * * * * * * * * * * * * * * * * * * * * * * * * * * * * * * * * * //

dimensions      [0 1 -1 0 0 0 0];

internalField   nonuniform List<vector> 
25000
(
(0.148225 0.148168 1.12597)
(0.12177 0.159705 1.15795)
(0.0897176 0.168654 1.17576)
(0.0549735 0.174302 1.18517)
(0.0185263 0.177131 1.18917)
(-0.0184303 0.177131 1.18917)
(-0.0548802 0.174303 1.18518)
(-0.0896297 0.168656 1.17577)
(-0.121689 0.15971 1.15796)
(-0.148156 0.148175 1.12598)
(0.159758 0.121705 1.15795)
(0.129942 0.129881 1.1871)
(0.0949798 0.136219 1.19906)
(0.0577789 0.140327 1.20338)
(0.0194018 0.142341 1.20459)
(-0.0193156 0.142341 1.20459)
(-0.0576949 0.140327 1.20338)
(-0.0949002 0.136218 1.19906)
(-0.129868 0.129882 1.18711)
(-0.159694 0.121707 1.15796)
(0.168702 0.0896482 1.17576)
(0.136275 0.0949146 1.19905)
(0.0990809 0.0990185 1.20619)
(0.0599829 0.101692 1.20689)
(0.0200863 0.102989 1.20618)
(-0.0200057 0.102988 1.20618)
(-0.0599044 0.101691 1.20689)
(-0.0990066 0.0990169 1.20619)
(-0.136207 0.094913 1.19906)
(-0.168642 0.0896474 1.17577)
(0.174345 0.0549015 1.18517)
(0.140381 0.0577105 1.20338)
(0.101753 0.0599167 1.20689)
(0.0614194 0.0613546 1.20517)
(0.020531 0.062048 1.20324)
(-0.0204537 0.0620476 1.20324)
(-0.0613441 0.0613535 1.20517)
(-0.101682 0.059915 1.20689)
(-0.140316 0.0577084 1.20338)
(-0.174289 0.0548994 1.18518)
(0.177171 0.0184534 1.18916)
(0.142392 0.0193318 1.20458)
(0.103048 0.0200179 1.20618)
(0.062112 0.0204636 1.20324)
(0.0207447 0.0206779 1.20073)
(-0.0206689 0.0206778 1.20073)
(-0.0620385 0.0204632 1.20324)
(-0.102979 0.0200169 1.20618)
(-0.14233 0.0193301 1.20459)
(-0.177118 0.0184508 1.18917)
(0.177169 -0.0185024 1.18916)
(0.142391 -0.0193859 1.20458)
(0.103047 -0.0200749 1.20618)
(0.0621115 -0.020522 1.20324)
(0.0207446 -0.0207367 1.20073)
(-0.0206688 -0.0207364 1.20073)
(-0.0620382 -0.0205214 1.20324)
(-0.102979 -0.0200746 1.20618)
(-0.14233 -0.0193866 1.20459)
(-0.177117 -0.0185051 1.18917)
(0.174339 -0.0549494 1.18517)
(0.140376 -0.0577635 1.20337)
(0.101749 -0.0599723 1.20689)
(0.0614178 -0.0614113 1.20517)
(0.0205306 -0.0621048 1.20324)
(-0.0204533 -0.0621041 1.20324)
(-0.0613434 -0.0614096 1.20517)
(-0.101681 -0.0599706 1.20689)
(-0.140315 -0.0577631 1.20338)
(-0.174287 -0.0549522 1.18518)
(0.168691 -0.0896934 1.17576)
(0.136267 -0.0949647 1.19905)
(0.099076 -0.0990706 1.20619)
(0.0599805 -0.101745 1.20689)
(0.0200858 -0.103041 1.20618)
(-0.020005 -0.10304 1.20618)
(-0.059903 -0.101742 1.20689)
(-0.0990047 -0.0990679 1.20619)
(-0.136205 -0.0949636 1.19906)
(-0.168639 -0.0896967 1.17577)
(0.159745 -0.121745 1.15794)
(0.129932 -0.129926 1.18709)
(0.0949739 -0.136264 1.19905)
(0.057776 -0.140372 1.20338)
(0.0194012 -0.142386 1.20459)
(-0.0193146 -0.142385 1.20459)
(-0.0576927 -0.14037 1.20338)
(-0.0948974 -0.136261 1.19906)
(-0.129865 -0.129925 1.1871)
(-0.15969 -0.12175 1.15796)
(0.148211 -0.148201 1.12596)
(0.12176 -0.15974 1.15794)
(0.0897107 -0.168688 1.17576)
(0.0549697 -0.174335 1.18517)
(0.0185251 -0.177163 1.18916)
(-0.0184293 -0.177162 1.18916)
(-0.0548774 -0.174333 1.18517)
(-0.0896253 -0.168686 1.17577)
(-0.121684 -0.15974 1.15795)
(-0.14815 -0.148205 1.12598)
(0.0510338 0.0507777 1.2676)
(0.0456736 0.0603806 1.35133)
(0.0366147 0.0682915 1.40574)
(0.023594 0.0741235 1.43805)
(0.00827669 0.0771327 1.45299)
(-0.00780462 0.0771418 1.45302)
(-0.0231365 0.0741511 1.43812)
(-0.0361879 0.0683368 1.40586)
(-0.0452912 0.0604462 1.35151)
(-0.0507236 0.0508552 1.26784)
(0.0606144 0.0453867 1.35131)
(0.0554206 0.0551617 1.43991)
(0.0443104 0.0629753 1.48872)
(0.0284195 0.0684458 1.51447)
(0.00988698 0.071262 1.52556)
(-0.00947712 0.0712666 1.52558)
(-0.028021 0.0684598 1.51452)
(-0.0439358 0.0629988 1.48881)
(-0.0550826 0.0551958 1.44005)
(-0.0603365 0.0454309 1.35151)
(0.0684965 0.0363155 1.4057)
(0.0632088 0.0440401 1.4887)
(0.0503382 0.05009 1.53174)
(0.0321605 0.05426 1.55277)
(0.011134 0.0564054 1.5612)
(-0.0107652 0.0564068 1.56121)
(-0.0318013 0.0542642 1.55282)
(-0.05 0.050097 1.53181)
(-0.0629043 0.0440506 1.48881)
(-0.0682468 0.0363303 1.40587)
(0.0743062 0.0232878 1.43799)
(0.0686593 0.0281428 1.51443)
(0.054492 0.0319041 1.55275)
(0.0347132 0.0344704 1.57034)
(0.0119847 0.0357906 1.57684)
(-0.0116416 0.0357901 1.57685)
(-0.034379 0.0344687 1.57038)
(-0.0541774 0.0319009 1.55282)
(-0.0683766 0.028138 1.51453)
(-0.074073 0.0232818 1.43814)
(0.077296 0.00797185 1.45291)
(0.0714603 0.00961017 1.5255)
(0.0566265 0.0108756 1.56116)
(0.0360256 0.0117379 1.57682)
(0.0124239 0.0121828 1.58228)
(-0.0120942 0.0121812 1.58229)
(-0.0357047 0.0117328 1.57686)
(-0.0563248 0.010866 1.56122)
(-0.0711898 0.0095949 1.5256)
(-0.0770721 0.00794957 1.45304)
(0.0772901 -0.00809986 1.4529)
(0.071455 -0.00974748 1.5255)
(0.0566224 -0.0110195 1.56115)
(0.0360226 -0.0118863 1.57682)
(0.012422 -0.0123348 1.58227)
(-0.0120951 -0.0123371 1.58228)
(-0.0357046 -0.0118937 1.57685)
(-0.0563238 -0.0110337 1.56122)
(-0.0711875 -0.00977106 1.52559)
(-0.0770684 -0.008136 1.45303)
(0.0742887 -0.0234122 1.43797)
(0.0686436 -0.0282768 1.51441)
(0.0544798 -0.0320442 1.55273)
(0.0347045 -0.0346144 1.57032)
(0.0119792 -0.0359378 1.57682)
(-0.0116443 -0.0359409 1.57684)
(-0.034379 -0.0346244 1.57036)
(-0.0541743 -0.0320633 1.5528)
(-0.0683698 -0.0283089 1.51451)
(-0.0740618 -0.0234626 1.43811)
(0.0684685 -0.0364322 1.40566)
(0.0631837 -0.0441664 1.48867)
(0.0503185 -0.0502214 1.5317)
(0.0321462 -0.0543941 1.55274)
(0.0111246 -0.0565417 1.56116)
(-0.0107701 -0.0565461 1.56118)
(-0.0318018 -0.0544082 1.55278)
(-0.0499955 -0.0502476 1.53178)
(-0.0628939 -0.0442095 1.48878)
(-0.0682295 -0.0364985 1.40582)
(0.0605773 -0.0454918 1.35126)
(0.0553879 -0.0552753 1.43986)
(0.0442841 -0.0630917 1.48867)
(0.0283995 -0.0685631 1.51442)
(0.00987305 -0.0713802 1.52551)
(-0.00948515 -0.0713869 1.52553)
(-0.0280229 -0.0685842 1.51447)
(-0.0439308 -0.0631295 1.48876)
(-0.0550696 -0.0553346 1.43999)
(-0.0603143 -0.0455783 1.35144)
(0.0509944 -0.0508644 1.26753)
(0.0456363 -0.0604728 1.35126)
(0.0365825 -0.0683829 1.40567)
(0.0235674 -0.0742141 1.43798)
(0.00825665 -0.077223 1.45293)
(-0.00781746 -0.0772329 1.45295)
(-0.0231411 -0.074245 1.43805)
(-0.0361832 -0.068435 1.40578)
(-0.0452762 -0.0605508 1.35142)
(-0.0506996 -0.0509665 1.26775)
(0.029811 0.0292019 1.13848)
(0.0278213 0.0360442 1.26339)
(0.02289 0.0417504 1.35405)
(0.0151951 0.0459546 1.41239)
(0.00566464 0.0481739 1.44078)
(-0.00452361 0.0482011 1.44093)
(-0.0140904 0.046037 1.41282)
(-0.0218601 0.0418846 1.35478)
(-0.0268971 0.0362363 1.26444)
(-0.0290616 0.0294367 1.13983)
(0.0365805 0.0271371 1.26332)
(0.0346559 0.0340601 1.41019)
(0.0285603 0.0397625 1.50431)
(0.0188556 0.043839 1.56007)
(0.00686904 0.0459637 1.58598)
(-0.00589377 0.0459792 1.58609)
(-0.0179097 0.0438868 1.56039)
(-0.0276749 0.039844 1.50487)
(-0.0338605 0.0341801 1.41103)
(-0.0359322 0.0272997 1.26447)
(0.0422085 0.0221779 1.35387)
(0.0402854 0.0279386 1.50421)
(0.0331306 0.0325746 1.5967)
(0.021763 0.0357946 1.64933)
(0.00782828 0.0374509 1.67315)
(-0.00696451 0.0374572 1.67323)
(-0.0209245 0.0358147 1.64958)
(-0.0323456 0.0326112 1.59715)
(-0.0395855 0.0279962 1.5049)
(-0.0416437 0.0222644 1.35485)
(0.0463555 0.0144671 1.41209)
(0.0443092 0.0182191 1.55987)
(0.036306 0.0211887 1.64924)
(0.0237564 0.0232216 1.6992)
(0.00848799 0.0242606 1.72157)
(-0.00769319 0.0242612 1.72164)
(-0.0229844 0.0232241 1.69942)
(-0.0355834 0.021195 1.64962)
(-0.0436678 0.0182325 1.56047)
(-0.0458377 0.014494 1.41295)
(0.0485269 0.00494145 1.44034)
(0.0463967 0.00623317 1.58567)
(0.0379353 0.00725024 1.67296)
(0.0247746 0.00794512 1.72148)
(0.00882649 0.00830027 1.74317)
(-0.00806653 0.00829733 1.74323)
(-0.024036 0.00793624 1.72167)
(-0.037244 0.00723536 1.67331)
(-0.0457844 0.00621262 1.58622)
(-0.0480325 0.00491717 1.44113)
(0.0485185 -0.00522112 1.44031)
(0.0463899 -0.00651207 1.58565)
(0.0379303 -0.00753118 1.67293)
(0.024771 -0.00822962 1.72145)
(0.0088239 -0.00859033 1.74314)
(-0.00806812 -0.00859599 1.7432)
(-0.0240364 -0.00824747 1.72165)
(-0.0372425 -0.00756353 1.67327)
(-0.0457802 -0.00656189 1.58618)
(-0.0480252 -0.00529122 1.44108)
(0.0463304 -0.0147369 1.412)
(0.0442887 -0.0184893 1.55979)
(0.0362906 -0.0214611 1.64916)
(0.0237451 -0.0234975 1.69913)
(0.00847982 -0.0245419 1.72149)
(-0.00769829 -0.0245506 1.72156)
(-0.0229857 -0.0235255 1.69933)
(-0.0355793 -0.0215124 1.64952)
(-0.0436558 -0.0185697 1.56035)
(-0.0458163 -0.014854 1.4128)
(0.0421683 -0.0224273 1.35373)
(0.0402518 -0.0281901 1.50408)
(0.0331044 -0.0328283 1.59656)
(0.0217429 -0.0360513 1.6492)
(0.00781333 -0.0377123 1.67301)
(-0.00697437 -0.037726 1.67308)
(-0.020928 -0.0360942 1.64943)
(-0.0323404 -0.0329049 1.59697)
(-0.0395682 -0.0283077 1.50469)
(-0.0416122 -0.0225948 1.35459)
(0.0365258 -0.0273575 1.26313)
(0.0346097 -0.0342825 1.41)
(0.0285227 -0.0399851 1.50412)
(0.0188249 -0.0440631 1.55987)
(0.0068448 -0.046191 1.58578)
(-0.00591108 -0.0462123 1.58587)
(-0.0179182 -0.0441288 1.56015)
(-0.0276717 -0.0400983 1.50459)
(-0.0338419 -0.0344502 1.41071)
(-0.0358949 -0.0275851 1.26409)
(0.0297493 -0.0293779 1.13826)
(0.0277645 -0.0362209 1.26316)
(0.0228401 -0.041924 1.35381)
(0.0151508 -0.0461284 1.41213)
(0.00562714 -0.048349 1.44051)
(-0.00455268 -0.0483795 1.44062)
(-0.014108 -0.0462212 1.41248)
(-0.021863 -0.0420769 1.3544)
(-0.0268819 -0.0364404 1.264)
(-0.0290289 -0.0296505 1.13934)
(0.00670368 0.005306 1.15109)
(0.00762094 0.00774243 1.28308)
(0.00724274 0.0101634 1.38325)
(0.00546063 0.0121081 1.4501)
(0.00269688 0.0132027 1.48348)
(-0.000438719 0.0132708 1.48384)
(-0.00326838 0.0123161 1.45117)
(-0.00518676 0.0105093 1.38506)
(-0.00575641 0.0082472 1.28563)
(-0.00516507 0.00594603 1.15435)
(0.00892909 0.00607769 1.2829)
(0.0105567 0.00926359 1.44461)
(0.00997212 0.0121599 1.55509)
(0.00729043 0.014346 1.62397)
(0.00323478 0.0155251 1.65708)
(-0.0013082 0.0155715 1.65735)
(-0.00541845 0.0144897 1.62481)
(-0.00821291 0.0124099 1.55653)
(-0.00896342 0.00964017 1.44673)
(-0.00760915 0.00660315 1.28575)
(0.0111389 0.00566212 1.38282)
(0.0132533 0.00864426 1.55486)
(0.0123599 0.0112129 1.66876)
(0.00884921 0.0130548 1.73738)
(0.00370162 0.0139993 1.76953)
(-0.00200446 0.0140257 1.76975)
(-0.00719989 0.0131393 1.73805)
(-0.010813 0.0113674 1.66995)
(-0.0118675 0.00889048 1.55665)
(-0.0100086 0.00603472 1.38531)
(0.0129318 0.00386445 1.44936)
(0.0152982 0.00594557 1.62348)
(0.0140821 0.0076743 1.73714)
(0.00992202 0.00885302 1.80416)
(0.00401636 0.00940169 1.83489)
(-0.00245917 0.0094138 1.83506)
(-0.00840827 0.00889542 1.80472)
(-0.0126657 0.0077584 1.73816)
(-0.0140406 0.00609146 1.62505)
(-0.0119124 0.00410672 1.45158)
(0.0139038 0.00112575 1.48236)
(0.0163801 0.00190193 1.65629)
(0.0149551 0.00252652 1.76905)
(0.0104152 0.00293593 1.83467)
(0.00414752 0.00311268 1.86411)
(-0.00265632 0.00311618 1.86426)
(-0.00896399 0.00294917 1.83516)
(-0.0135996 0.00255724 1.76997)
(-0.0151844 0.00196503 1.65774)
(-0.0129421 0.00124777 1.48443)
(0.0138821 -0.00194398 1.48228)
(0.0163669 -0.00259565 1.65622)
(0.0149482 -0.00315009 1.76899)
(0.0104124 -0.00352311 1.83461)
(0.00414637 -0.00368482 1.86406)
(-0.00265628 -0.00368851 1.8642)
(-0.00896232 -0.00353431 1.8351)
(-0.0135944 -0.00316618 1.76989)
(-0.0151742 -0.00260788 1.65764)
(-0.0129265 -0.00193481 1.48431)
(0.0128652 -0.00465795 1.44911)
(0.0152571 -0.00661841 1.62327)
(0.01406 -0.00827858 1.73695)
(0.00991116 -0.00942194 1.80398)
(0.00401158 -0.0099567 1.83471)
(-0.00245961 -0.00996885 1.83488)
(-0.00840289 -0.00946155 1.80451)
(-0.0126505 -0.00834634 1.73791)
(-0.0140112 -0.0067108 1.62475)
(-0.0118666 -0.00476625 1.4512)
(0.0110278 -0.00640438 1.38242)
(0.0131818 -0.00927358 1.5545)
(0.012319 -0.0117755 1.66844)
(0.00882648 -0.0135825 1.73706)
(0.00368973 -0.014513 1.76921)
(-0.00200799 -0.014539 1.76941)
(-0.00719313 -0.0136622 1.73767)
(-0.0107909 -0.0119096 1.66951)
(-0.0118236 -0.00946047 1.55613)
(-0.00993964 -0.00663794 1.38467)
(0.00876669 -0.00674673 1.28237)
(0.0104496 -0.00982744 1.44413)
(0.00990663 -0.0126559 1.55462)
(0.00724959 -0.0148059 1.62351)
(0.00320972 -0.0159695 1.6566)
(-0.00132045 -0.0160143 1.65684)
(-0.00541569 -0.0149409 1.62424)
(-0.00818975 -0.0128782 1.55588)
(-0.00891205 -0.010134 1.44598)
(-0.00752409 -0.00712428 1.28486)
(0.00649817 -0.005849 1.15046)
(0.0074725 -0.00819523 1.28249)
(0.00714339 -0.0105523 1.38267)
(0.00539194 -0.0124653 1.44951)
(0.00265015 -0.0135451 1.48285)
(-0.000467137 -0.0136104 1.48315)
(-0.00327617 -0.0126613 1.45041)
(-0.00516939 -0.0108666 1.38419)
(-0.00570676 -0.00862588 1.28465)
(-0.00508386 -0.00634333 1.15323)
(0.00692654 0.00418544 1.11336)
(0.00693263 0.00582578 1.25115)
(0.00621708 0.00731672 1.35792)
(0.00483485 0.00845791 1.43049)
(0.00293397 0.0091331 1.46731)
(0.000815247 0.00926954 1.46805)
(-0.00118629 0.00887462 1.43273)
(-0.00277755 0.0080118 1.36167)
(-0.00378595 0.00683562 1.25639)
(-0.00429713 0.00545737 1.12)
(0.00813007 0.00390744 1.2507)
(0.00823878 0.0057383 1.42256)
(0.00737262 0.00737953 1.54348)
(0.00554486 0.0086169 1.62084)
(0.0030194 0.00931005 1.65876)
(0.000225135 0.0094167 1.65935)
(-0.0023859 0.00894684 1.62266)
(-0.00438984 0.00795245 1.5466)
(-0.00551344 0.00659281 1.42708)
(-0.00583748 0.00507508 1.25668)
(0.00917435 0.00313993 1.3569)
(0.00944682 0.00482803 1.54295)
(0.00844147 0.0062947 1.67057)
(0.00619884 0.00735003 1.74976)
(0.00312448 0.00789803 1.78763)
(-0.000246045 0.00797116 1.78812)
(-0.00339699 0.0075823 1.75126)
(-0.00580369 0.00671428 1.67322)
(-0.00706522 0.00548063 1.5469)
(-0.00720449 0.00408643 1.36229)
(0.00998576 0.00175013 1.42875)
(0.0103689 0.00298786 1.6197)
(0.00922393 0.00401644 1.74921)
(0.00664568 0.00470639 1.82778)
(0.00319259 0.00500223 1.86427)
(-0.000542506 0.00504833 1.86467)
(-0.00406689 0.0048625 1.82905)
(-0.00680606 0.0043119 1.75154)
(-0.00821082 0.00347034 1.62326)
(-0.00821847 0.00248795 1.43371)
(0.0103921 -8.45031e-05 1.46471)
(0.0108387 0.000499426 1.65693)
(0.00960045 0.000952613 1.78652)
(0.00680469 0.00123925 1.86377)
(0.00318942 0.00135168 1.89804)
(-0.000647431 0.00138125 1.89836)
(-0.0043286 0.00133863 1.86491)
(-0.00728879 0.00114664 1.78867)
(-0.00879708 0.000830361 1.66029)
(-0.0087442 0.000443698 1.46945)
(0.0103275 -0.00206786 1.46445)
(0.0107995 -0.00220187 1.65672)
(0.00958107 -0.00235818 1.78635)
(0.00679743 -0.00246302 1.86364)
(0.00318707 -0.00247446 1.89793)
(-0.000647192 -0.00245864 1.89825)
(-0.00432528 -0.00241319 1.86477)
(-0.00727845 -0.00225652 1.7885)
(-0.0087771 -0.0020145 1.66007)
(-0.00871317 -0.00174518 1.46918)
(0.00978654 -0.00385064 1.42796)
(0.0102455 -0.00464883 1.61908)
(0.00916012 -0.00538564 1.74871)
(0.00661732 -0.0058969 1.82735)
(0.00318258 -0.00609467 1.86388)
(-0.000541379 -0.00609551 1.86427)
(-0.00405383 -0.00590354 1.8286)
(-0.00677414 -0.00538504 1.751)
(-0.00815104 -0.00461372 1.6226)
(-0.00812574 -0.00374274 1.4329)
(0.00883729 -0.00513034 1.35558)
(0.00922634 -0.00640262 1.5419)
(0.00831892 -0.00758536 1.6697)
(0.00613679 -0.00846473 1.74899)
(0.00309799 -0.00891477 1.78691)
(-0.000249149 -0.00894246 1.78737)
(-0.00337704 -0.00854665 1.75044)
(-0.00575256 -0.00770769 1.67228)
(-0.0069698 -0.00653934 1.54578)
(-0.00705837 -0.00524576 1.36095)
(0.00762539 -0.00573886 1.24887)
(0.00789303 -0.00718407 1.42106)
(0.00716349 -0.00854558 1.54221)
(0.00542399 -0.00960782 1.61969)
(0.00295642 -0.0102014 1.65766)
(0.000203799 -0.0102618 1.65822)
(-0.00236808 -0.00978509 1.62143)
(-0.00432593 -0.0088187 1.54522)
(-0.00538813 -0.00752324 1.42549)
(-0.00564179 -0.00609677 1.25483)
(0.00626027 -0.00570591 1.11105)
(0.00642511 -0.00702362 1.24918)
(0.00587629 -0.00826159 1.35622)
(0.00461358 -0.00925059 1.42895)
(0.002803 -0.00983535 1.46583)
(0.000754047 -0.00992928 1.46654)
(-0.00118312 -0.00952688 1.4311)
(-0.00270803 -0.00868558 1.35986)
(-0.00363832 -0.00756768 1.25434)
(-0.00407807 -0.00626212 1.1177)
(0.003096 -0.00124858 1.11899)
(0.0036064 -0.000534236 1.25731)
(0.00371827 0.000265755 1.36538)
(0.00351119 0.000932987 1.43948)
(0.00303156 0.00140513 1.4775)
(0.00240846 0.00162276 1.47875)
(0.00177733 0.00159092 1.44324)
(0.00125214 0.00134311 1.37165)
(0.000907991 0.000977872 1.26603)
(0.000625136 0.00055468 1.12995)
(0.00321115 -0.00124032 1.25635)
(0.00384403 -0.00024925 1.42988)
(0.0039557 0.000707965 1.55355)
(0.00359138 0.00148139 1.63369)
(0.00286213 0.0019804 1.67348)
(0.0019634 0.00216327 1.67453)
(0.00110423 0.00203837 1.63688)
(0.000469899 0.00164843 1.55899)
(0.000178562 0.00109167 1.43769)
(0.000140391 0.00047788 1.26656)
(0.00331325 -0.00122926 1.36325)
(0.00411297 -0.000216267 1.55246)
(0.00423369 0.000701467 1.68441)
(0.0037202 0.00141335 1.76758)
(0.00275049 0.00184303 1.8079)
(0.00158761 0.00197974 1.80879)
(0.00049972 0.00183645 1.77033)
(-0.000265651 0.00143617 1.68922)
(-0.000541828 0.000862294 1.55954)
(-0.000379587 0.000215687 1.37277)
(0.00342774 -0.00144167 1.43596)
(0.00434279 -0.000589587 1.6314)
(0.00446566 0.000142495 1.76648)
(0.00383148 0.000682163 1.84978)
(0.00268042 0.000976258 1.88891)
(0.00132543 0.00107263 1.88967)
(6.12397e-05 0.000991393 1.8522)
(-0.000821104 0.000695683 1.77085)
(-0.00109705 0.000249538 1.63799)
(-0.000782265 -0.000275776 1.44499)
(0.00342551 -0.00179599 1.47236)
(0.00442553 -0.00124044 1.66986)
(0.00456114 -0.00079506 1.80568)
(0.00385347 -0.000483592 1.88793)
(0.00261923 -0.000317267 1.92452)
(0.00120208 -0.000249201 1.92513)
(-0.000140898 -0.000267007 1.89013)
(-0.00110372 -0.000400922 1.80982)
(-0.00138031 -0.000628008 1.67622)
(-0.000976036 -0.000927041 1.48118)
(0.00327173 -0.00218159 1.47173)
(0.00431008 -0.00197087 1.66938)
(0.00448464 -0.00184681 1.80531)
(0.00380491 -0.00177612 1.88763)
(0.00258683 -0.00171505 1.92429)
(0.0011819 -0.00167268 1.92491)
(-0.000148839 -0.0016438 1.88984)
(-0.00109305 -0.00160135 1.80948)
(-0.0013453 -0.001578 1.6758)
(-0.000913352 -0.00161003 1.48066)
(0.00295671 -0.00244842 1.43406)
(0.00398613 -0.00255372 1.62993)
(0.00422571 -0.00272601 1.76532)
(0.00367447 -0.00288737 1.84883)
(0.00257805 -0.00295585 1.88809)
(0.00126435 -0.00294131 1.88886)
(4.15488e-05 -0.00284544 1.85129)
(-0.000787079 -0.00263698 1.76979)
(-0.0009906 -0.00238804 1.63672)
(-0.000592601 -0.00218298 1.44343)
(0.00252378 -0.00247208 1.36003)
(0.00349277 -0.00278371 1.54992)
(0.00380228 -0.00315849 1.68236)
(0.00342859 -0.00349648 1.76584)
(0.00255953 -0.00369836 1.80632)
(0.00147537 -0.00372222 1.80724)
(0.000464408 -0.00356301 1.76868)
(-0.000209045 -0.00324527 1.68736)
(-0.000366019 -0.0028596 1.55737)
(-7.28444e-05 -0.00251124 1.37017)
(0.00205766 -0.00218719 1.25179)
(0.0029139 -0.00253477 1.42617)
(0.00328161 -0.00296098 1.55046)
(0.00311559 -0.00336345 1.63102)
(0.00254299 -0.00362987 1.67104)
(0.00177451 -0.00369652 1.67214)
(0.001041 -0.0035549 1.63438)
(0.000545335 -0.00324538 1.55625)
(0.000424124 -0.00287401 1.43457)
(0.00056978 -0.00253521 1.26295)
(0.00162895 -0.0016299 1.11308)
(0.00232151 -0.00182259 1.25228)
(0.0027278 -0.00213998 1.3611)
(0.00277654 -0.00248048 1.43575)
(0.0025271 -0.0027366 1.47408)
(0.00210724 -0.00284326 1.47543)
(0.00167265 -0.002791 1.43981)
(0.00134709 -0.00260671 1.36796)
(0.00122432 -0.00240874 1.26195)
(0.00113835 -0.00220976 1.12541)
(0.00406096 -0.00108096 1.10949)
(0.00448272 -0.000578851 1.24956)
(0.00448381 4.59729e-05 1.35952)
(0.00423828 0.000579204 1.43534)
(0.0037628 0.000999522 1.47465)
(0.00313682 0.00125063 1.47664)
(0.00242562 0.0013186 1.44131)
(0.00168662 0.00119343 1.36949)
(0.000964805 0.000893785 1.26346)
(0.000231273 0.000416738 1.12697)
(0.00415684 -0.0014277 1.24769)
(0.00450046 -0.000820638 1.42383)
(0.00445211 -0.000172673 1.55011)
(0.00411708 0.000385302 1.63249)
(0.00354345 0.000790192 1.67382)
(0.00282549 0.00100416 1.67554)
(0.00205074 0.00101631 1.63769)
(0.00129374 0.000823305 1.55896)
(0.000599663 0.000449837 1.4365)
(-6.96591e-05 -5.95695e-05 1.2642)
(0.00408304 -0.00165633 1.35547)
(0.00444963 -0.00106854 1.54807)
(0.00439381 -0.00047171 1.68335)
(0.00399191 2.67041e-05 1.76928)
(0.00332781 0.000364132 1.81138)
(0.00252158 0.000524024 1.81287)
(0.00167889 0.000503029 1.77387)
(0.000893419 0.000290461 1.69134)
(0.00022484 -9.20865e-05 1.55977)
(-0.000357226 -0.000602122 1.37109)
(0.00398757 -0.00194223 1.42883)
(0.00436535 -0.00144793 1.62828)
(0.00431273 -0.000959193 1.76728)
(0.00386815 -0.000566047 1.85373)
(0.00314358 -0.000321374 1.89475)
(0.00228157 -0.00021197 1.89605)
(0.0013929 -0.000231676 1.85785)
(0.000585793 -0.000419326 1.77466)
(-5.39192e-05 -0.000759489 1.63934)
(-0.000545873 -0.00122308 1.44381)
(0.0038184 -0.00224127 1.46539)
(0.00422106 -0.0019088 1.66728)
(0.0041912 -0.00157452 1.80735)
(0.0037348 -0.00130889 1.89295)
(0.00299473 -0.0011466 1.93138)
(0.00213448 -0.0010741 1.93245)
(0.00124161 -0.00109438 1.89676)
(0.000428181 -0.00123751 1.81444)
(-0.000178202 -0.00150268 1.67803)
(-0.00059654 -0.00188264 1.48008)
(0.00358658 -0.00251487 1.46425)
(0.00400945 -0.00237096 1.66636)
(0.00402234 -0.00220944 1.80661)
(0.00360674 -0.0020752 1.89234)
(0.00289817 -0.00197931 1.93091)
(0.00206616 -0.00194084 1.932)
(0.00120251 -0.00196967 1.89619)
(0.000429708 -0.00206204 1.81376)
(-0.000126161 -0.00223759 1.67721)
(-0.000490444 -0.00251299 1.47907)
(0.00329147 -0.00269356 1.42538)
(0.00372661 -0.00273396 1.62547)
(0.00379765 -0.00274073 1.76497)
(0.00347108 -0.00273969 1.85179)
(0.00284689 -0.00272781 1.89304)
(0.00207585 -0.0027245 1.89438)
(0.00128374 -0.00274693 1.85602)
(0.000596388 -0.00278529 1.77256)
(0.000107486 -0.00287263 1.63683)
(-0.000222415 -0.00304425 1.44076)
(0.00295383 -0.0027205 1.34961)
(0.00338661 -0.00290348 1.5432)
(0.00351866 -0.00304262 1.67925)
(0.00330582 -0.00315515 1.76572)
(0.00281644 -0.0032327 1.80813)
(0.00217501 -0.00327418 1.80969)
(0.00150632 -0.00328906 1.77053)
(0.000923928 -0.00328999 1.68762)
(0.000502869 -0.00331441 1.55546)
(0.000173524 -0.00339695 1.36595)
(0.00260351 -0.00257088 1.23936)
(0.003018 -0.00282645 1.41669)
(0.00320358 -0.00303495 1.54392)
(0.00311938 -0.00321563 1.627)
(0.00280065 -0.00335525 1.66874)
(0.0023362 -0.00344362 1.67056)
(0.00182837 -0.0034858 1.63255)
(0.00136701 -0.00349567 1.55338)
(0.00101886 -0.00351609 1.43021)
(0.000695108 -0.00355067 1.25694)
(0.00226114 -0.00223761 1.09873)
(0.00263673 -0.00249943 1.23991)
(0.00286658 -0.00272249 1.35092)
(0.00291453 -0.00292608 1.42757)
(0.00278309 -0.00309774 1.46741)
(0.00251868 -0.00322341 1.46958)
(0.00219143 -0.00330624 1.43409)
(0.00185278 -0.00334242 1.3618)
(0.00156267 -0.00339201 1.25504)
(0.00118398 -0.00335541 1.11768)
(0.00256113 -0.00133891 1.10942)
(0.00331435 -0.00151468 1.25054)
(0.00369759 -0.00138228 1.36175)
(0.00382043 -0.00116534 1.43882)
(0.00369246 -0.000928945 1.47929)
(0.00337145 -0.000761645 1.4823)
(0.00290048 -0.000712996 1.44788)
(0.00232331 -0.000812355 1.37694)
(0.00168389 -0.00106607 1.27178)
(0.00101338 -0.00145047 1.13617)
(0.00270852 -0.00146801 1.24739)
(0.00341948 -0.00158788 1.42475)
(0.00377416 -0.00146701 1.55242)
(0.0038521 -0.0012485 1.63616)
(0.00369282 -0.00103387 1.67866)
(0.00335901 -0.000905392 1.68129)
(0.00290137 -0.000913144 1.64413)
(0.00235967 -0.00108505 1.56597)
(0.00176579 -0.00141976 1.4441)
(0.0011376 -0.0018754 1.27258)
(0.0026422 -0.001475 1.35499)
(0.00335478 -0.00162134 1.54904)
(0.00369936 -0.00153835 1.68596)
(0.00374862 -0.00136165 1.77342)
(0.00356317 -0.0011996 1.81673)
(0.00321752 -0.00112428 1.81904)
(0.00277113 -0.00117811 1.7805)
(0.00226631 -0.00138874 1.69824)
(0.00173303 -0.00175331 1.56694)
(0.00118955 -0.00224095 1.37875)
(0.00252892 -0.00145488 1.4282)
(0.00321175 -0.00166534 1.62931)
(0.00354809 -0.00165 1.77016)
(0.0035835 -0.0015422 1.8583)
(0.00338479 -0.00144841 1.90054)
(0.00303882 -0.0014276 1.90257)
(0.00261242 -0.00151199 1.86467)
(0.00215009 -0.00174071 1.78151)
(0.00168736 -0.00211268 1.64616)
(0.00123807 -0.00260595 1.45081)
(0.00236532 -0.00138652 1.46451)
(0.00301863 -0.00170019 1.66816)
(0.00335868 -0.00178376 1.81022)
(0.00340045 -0.00176592 1.89761)
(0.00321029 -0.0017419 1.93726)
(0.00288924 -0.00176365 1.93893)
(0.00249897 -0.00187246 1.9035)
(0.00208345 -0.00210365 1.82106)
(0.00169398 -0.00246239 1.68441)
(0.0013347 -0.00293556 1.48641)
(0.00218618 -0.00126831 1.46299)
(0.00280079 -0.00169825 1.66681)
(0.00314974 -0.00189449 1.80903)
(0.00322302 -0.00197397 1.89656)
(0.00307129 -0.00201553 1.93639)
(0.0027925 -0.00207821 1.93807)
(0.00244892 -0.00220691 1.90244)
(0.00209741 -0.00242864 1.81982)
(0.00178404 -0.00275915 1.68293)
(0.00149785 -0.00319261 1.48462)
(0.00201774 -0.00107655 1.42358)
(0.00258135 -0.00161356 1.62517)
(0.00293427 -0.00191677 1.76646)
(0.00305309 -0.00209082 1.85498)
(0.00296841 -0.00220465 1.89748)
(0.00275339 -0.00230776 1.8995)
(0.00247964 -0.00244989 1.86131)
(0.00220679 -0.00265887 1.77767)
(0.0019708 -0.00295656 1.64164)
(0.00173891 -0.00334235 1.44541)
(0.00189131 -0.000802043 1.34723)
(0.00239564 -0.00140267 1.54194)
(0.00274189 -0.00178438 1.67947)
(0.0029079 -0.00203491 1.76742)
(0.00290497 -0.00221487 1.81099)
(0.00278291 -0.00236485 1.81327)
(0.00260136 -0.00252649 1.77438)
(0.00240974 -0.0027326 1.69144)
(0.00224159 -0.00300559 1.55916)
(0.00202641 -0.00333751 1.36963)
(0.00186927 -0.000438767 1.23646)
(0.00229091 -0.00103657 1.41448)
(0.00260977 -0.00145504 1.54278)
(0.00281595 -0.00175436 1.62702)
(0.00289803 -0.00198546 1.66978)
(0.00287907 -0.00218233 1.67235)
(0.00279685 -0.00238131 1.63476)
(0.00268368 -0.00260687 1.5558)
(0.00257688 -0.00288725 1.43276)
(0.00237558 -0.00318438 1.25968)
(0.00195655 -0.000101609 1.09559)
(0.00229156 -0.000591993 1.23705)
(0.00256631 -0.00097735 1.34868)
(0.00279716 -0.00127153 1.42614)
(0.00295255 -0.00152001 1.46682)
(0.00302973 -0.00174148 1.46971)
(0.00304124 -0.00196758 1.43481)
(0.00298708 -0.00219971 1.36298)
(0.0029019 -0.00249782 1.25663)
(0.00260932 -0.00272208 1.11967)
(0.00109959 0.000952025 1.1032)
(0.00181718 0.000183081 1.24619)
(0.00231683 -0.000270438 1.35938)
(0.0025436 -0.000510172 1.43829)
(0.00250159 -0.000629857 1.48035)
(0.00223352 -0.000722899 1.4847)
(0.00178693 -0.000870371 1.45137)
(0.00122075 -0.00111554 1.38128)
(0.000589044 -0.00149757 1.27674)
(3.43967e-05 -0.00196507 1.1415)
(0.00171247 0.000991729 1.24156)
(0.00244113 0.000109241 1.42092)
(0.00291889 -0.000438256 1.55053)
(0.00310815 -0.000735293 1.636)
(0.00303871 -0.000893874 1.67995)
(0.00276093 -0.00102089 1.68374)
(0.00231805 -0.00120281 1.6475)
(0.00174892 -0.00149279 1.57005)
(0.00108871 -0.00190972 1.4487)
(0.00044028 -0.00241131 1.27749)
(0.00206332 0.000983607 1.34945)
(0.00276179 3.44943e-06 1.54555)
(0.00319374 -0.000601933 1.68439)
(0.00334431 -0.000941949 1.77352)
(0.00325654 -0.00114028 1.81816)
(0.00298495 -0.0013043 1.82149)
(0.00256746 -0.00151502 1.78372)
(0.00203092 -0.00182637 1.70201)
(0.00140242 -0.00225031 1.5711)
(0.000758681 -0.00275599 1.38311)
(0.00226069 0.0010206 1.42286)
(0.00288868 -4.83629e-05 1.62598)
(0.003262 -0.000720236 1.76873)
(0.00337737 -0.00111616 1.85849)
(0.00328036 -0.00136649 1.90197)
(0.00303 -0.00157687 1.90488)
(0.0026573 -0.00181903 1.86762)
(0.00217531 -0.00215047 1.7849)
(0.00160857 -0.00258088 1.64978)
(0.00100436 -0.00308343 1.4545)
(0.00237111 0.00109986 1.45927)
(0.00290652 -5.06401e-05 1.66481)
(0.00322318 -0.000796037 1.80871)
(0.00331629 -0.00125751 1.89767)
(0.00322356 -0.0015606 1.93848)
(0.00300814 -0.00181018 1.94087)
(0.00268968 -0.00208681 1.90601)
(0.00226853 -0.00243653 1.82391)
(0.00177554 -0.00286632 1.68737)
(0.00123302 -0.00335054 1.48929)
(0.00244548 0.00121297 1.45772)
(0.00288129 -3.73839e-06 1.66322)
(0.00314448 -0.000820461 1.80713)
(0.00323023 -0.00134876 1.89616)
(0.00315938 -0.00170397 1.93714)
(0.00298057 -0.00199326 1.9395)
(0.00270786 -0.00229796 1.90432)
(0.00235394 -0.00265681 1.82193)
(0.00193857 -0.00307532 1.68505)
(0.00145808 -0.00352657 1.48656)
(0.00253678 0.0013568 1.4182)
(0.00286707 0.000102123 1.62116)
(0.00306881 -0.000772452 1.76391)
(0.0031465 -0.00136358 1.85377)
(0.00310327 -0.00177643 1.89734)
(0.00296203 -0.00210404 1.90007)
(0.0027407 -0.00242769 1.86227)
(0.00245652 -0.00278493 1.77879)
(0.00211896 -0.00318044 1.64272)
(0.00169631 -0.00358509 1.44628)
(0.00266675 0.00150524 1.34172)
(0.00290819 0.000272802 1.53742)
(0.00304131 -0.000629254 1.67608)
(0.00310218 -0.00126781 1.76514)
(0.0030789 -0.001731 1.80965)
(0.00297884 -0.00209813 1.81261)
(0.00281306 -0.00243919 1.77413)
(0.00259022 -0.00279011 1.69136)
(0.00231675 -0.00315419 1.55905)
(0.00192476 -0.00349223 1.36934)
(0.00291138 0.00165315 1.23092)
(0.00305525 0.000510446 1.4095)
(0.00310757 -0.0003851 1.53855)
(0.00314048 -0.00104647 1.6236)
(0.00312513 -0.00154635 1.66711)
(0.00305589 -0.00194657 1.67027)
(0.00293217 -0.00230689 1.6331)
(0.00275228 -0.0026536 1.55437)
(0.00252875 -0.00299692 1.4314)
(0.00217294 -0.00326906 1.25825)
(0.00317477 0.00154373 1.09023)
(0.00330528 0.000620422 1.23184)
(0.00329209 -0.000182544 1.34381)
(0.00328649 -0.000783252 1.42174)
(0.00325416 -0.00126265 1.46292)
(0.00318952 -0.00164964 1.4663)
(0.0030812 -0.00199442 1.43178)
(0.00290847 -0.00229965 1.36026)
(0.00268979 -0.00260905 1.25411)
(0.00227394 -0.00275792 1.11726)
(-0.00171507 0.00337059 1.09869)
(-0.00128715 0.00216381 1.24308)
(-0.000741919 0.00111705 1.35796)
(-0.000380601 0.000339104 1.43858)
(-0.000215174 -0.000267521 1.48222)
(-0.000242985 -0.00075897 1.48792)
(-0.000422104 -0.00121939 1.45569)
(-0.00068616 -0.00167972 1.3864)