/*--------------------------------*- C++ -*----------------------------------*\
| =========                 |                                                 |
| \\      /  F ield         | OpenFOAM: The Open Source CFD Toolbox           |
|  \\    /   O peration     | Version:  2406                                  |
|   \\  /    A nd           | Website:  www.openfoam.com                      |
|    \\/     M anipulation  |                                                 |
\*---------------------------------------------------------------------------*/
FoamFile
{
    version     2.0;
    format      ascii;
    arch        "LSB;label=32;scalar=64";
    class       volScalarField;
    location    "100";
    object      div(phi);
}
// * * * * * * * * * * * * * * * * * * * * * * * * * * * * * * * * * * * * * //

dimensions      [0 0 -1 0 0 0 0];

internalField   nonuniform List<scalar> 
25000
(
-0.068084
0.0348349
0.01511
0.00880767
0.00303796
0.00186192
0.00103604
0.000518088
0.000608753
0.000643094
0.00261783
-0.000900417
0.00518919
0.0040447
0.00350407
0.00166335
0.00101549
0.000857196
0.000598276
0.000814113
-0.012698
-0.00130444
0.00399575
0.0039782
0.00317024
0.00219134
0.00151934
0.000973966
0.000778968
0.000869009
-0.00183985
-0.00135658
0.00100116
0.00337331
0.00302394
0.00231162
0.00148277
0.00114131
0.000915984
0.000895536
-0.00601861
-0.00235703
0.00187503
0.00219982
0.00255772
0.0019674
0.00164864
0.00121615
0.000904111
0.000973337
-0.000977441
-0.000680549
-0.000246524
0.0020807
0.00173241
0.00195891
0.00133051
0.00109859
0.000996736
0.000994756
-0.00231803
-0.0019629
0.000790011
0.000359674
0.00155104
0.000900416
0.000980226
0.000941213
0.000736168
0.000949364
-0.000353366
-0.000974051
-0.000811606
0.000498153
0.000413106
0.000571986
0.000728884
0.000374802
0.000700924
0.000852172
-0.00181519
-0.00103481
-0.000803795
0.000391683
4.43718e-05
0.000695933
-9.07542e-07
0.000596146
0.000312688
0.000710674
-7.05079e-05
0.00031824
0.00106485
0.000840109
0.00118084
0.000717914
0.000860292
0.000610111
0.000504185
0.000782711
-0.00757759
-0.00111357
0.00139776
0.00266113
0.00141624
0.00163402
0.00132105
0.000796472
0.00122589
0.00144316
-0.00430541
-0.00216675
0.000952756
0.000557058
0.00189556
0.000634843
0.00083778
0.000898594
0.000536501
0.0012592
-0.00681333
-0.00218498
0.000836309
0.00103538
0.00113848
0.00132021
0.000887335
0.000714191
0.000953359
0.0010818
-0.00181455
-0.00147267
-0.00127275
0.000899835
0.00129143
0.000999122
0.00100405
0.00092106
0.000671347
0.00108054
-0.00457427
-0.00291617
0.000154525
0.000207662
0.000856724
0.00106639
0.000843086
0.00075351
0.000833434
0.000989429
-0.00139934
-0.00126451
-0.00176438
0.000394724
0.000389946
0.000757213
0.000685077
0.000683376
0.000649546
0.000983226
-0.00276692
-0.00281298
-0.00047055
-0.00105423
0.000249815
1.1527e-05
0.000173987
0.000383494
0.000464474
0.000878662
-0.00111435
-0.00175493
-0.00189362
-0.000632274
-0.000566188
-0.000313298
0.00010077
-8.33986e-05
0.000399009
0.000745742
-0.00243261
-0.00165742
-0.00155126
-0.000337559
-0.000612887
0.000192531
-0.000460768
0.000284266
9.35199e-05
0.000702835
-0.000595206
-0.00018649
0.000586572
0.000429063
0.000880874
0.00046251
0.000688086
0.000474969
0.000451223
0.000864016
0.00443859
0.00304013
0.00288724
0.002572
0.00215683
0.00181305
0.00181837
0.00107185
0.00148411
0.00161903
0.00326851
0.00194345
0.00208172
0.00170732
0.00175983
0.00120929
0.000991313
0.00104826
0.000475493
0.00127884
0.00226489
0.0015553
0.00179268
0.00163273
0.00138473
0.00123215
0.000919877
0.000563357
0.000805147
0.00100669
0.00201754
0.00139401
0.00124427
0.00141266
0.00129527
0.000957027
0.000751462
0.000703916
0.000442705
0.000979686
0.00145856
0.000891836
0.00129018
0.00116705
0.00106967
0.000944477
0.000633895
0.000474404
0.00055555
0.0008977
0.00140501
0.00102228
0.000842951
0.0011017
0.000909636
0.000729892
0.000562233
0.000442728
0.000444838
0.000868738
0.00107794
0.000594795
0.000933336
0.000666226
0.000743791
0.00053664
0.000263841
0.000394904
0.000295572
0.000887809
0.0010712
0.00060938
0.000525015
0.000599188
0.000512551
0.00024064
0.000421224
5.00737e-05
0.000440302
0.00075378
0.000690665
0.00052193
0.000369052
0.000640342
0.000291622
0.000591957
-1.3146e-05
0.000481381
0.000130481
0.000907524
0.00106587
0.000841286
0.000922607
0.000803547
0.000922336
0.000636465
0.000742374
0.0005293
0.000477356
0.00112691
0.00142064
0.000878062
0.00125662
0.00130137
0.00144239
0.00136115
0.00164683
0.000716661
0.00131205
0.00169673
0.000946846
0.000626099
0.000831502
0.000933488
0.00114635
0.000848386
0.000613555
0.000835123
-9.92604e-05
0.00116051
0.000678891
0.000354185
0.000704525
0.00079796
0.000750239
0.000764476
0.000473326
-9.96506e-06
0.000374711
0.000846011
0.000614857
0.000415465
0.000453381
0.00065285
0.000699335
0.000428905
0.000184718
0.000213896
-7.74081e-05
0.000753914
0.000630029
0.000280218
0.000570073
0.000607149
0.000550771
0.000465879
0.000122812
-2.95998e-05
5.61016e-05
0.000706004
0.000722547
0.000523598
0.00045479
0.000624033
0.0005195
0.000289313
0.000118542
-6.58968e-05
7.90639e-05
0.000674819
0.000741578
0.000318193
0.000514368
0.000354634
0.000337017
0.000202937
-0.000195802
5.73282e-05
-0.000125539
0.000802574
0.000885145
0.000349552
0.000266353
0.000278247
0.000232067
-7.15279e-05
0.000117501
-0.000299906
0.000212744
0.000770306
0.000521277
0.000230808
0.00012645
0.000331517
9.85664e-05
0.000332306
-0.000248777
0.000274525
-0.000113949
0.000977031
0.00129873
0.000835345
0.000871813
0.000780119
0.000848889
0.000610274
0.000660023
0.00051272
0.000320683
0.00159747
0.00803599
0.00466196
0.00440332
0.00379987
0.00323573
0.00269801
0.00258772
0.00160025
0.00219957
0.00297615
0.00447652
0.00243319
0.00239857
0.00193901
0.00203853
0.00123539
0.000928249
0.00111563
0.000172011
0.00166926
0.00296315
0.00159377
0.00186928
0.00166915
0.00126296
0.00114984
0.000659346
0.000131315
0.000650888
0.0012132
0.00234596
0.00142933
0.00112407
0.00125416
0.00114454
0.000604484
0.00032678
0.00038163
-1.14211e-06
0.0010532
0.00159915
0.000794782
0.00125544
0.00101633
0.000791545
0.000655091
0.00017917
-2.1238e-05
0.000242755
0.000877691
0.00184746
0.00114006
0.000673858
0.000938584
0.000644093
0.000281703
0.000120848
1.27537e-05
6.02369e-05
0.0008908
0.00124925
0.000446259
0.000777139
0.000249189
0.000237532
4.7011e-05
-0.000357654
-0.000147611
-7.23569e-06
0.000877801
0.00168644
0.000402963
9.6643e-05
8.07482e-05
-6.39517e-05
-0.000378283
-0.00021086
-0.000349809
5.40224e-05
0.000981239
0.000459449
0.000199944
-0.000246876
9.54199e-05
-0.000233217
1.57122e-05
-0.000464021
-1.90363e-05
-7.42982e-05
0.000966514
0.00198747
0.00108387
0.00110258
0.000825091
0.000872723
0.000605946
0.000631681
0.00064678
0.00044986
0.0019003
-0.000290489
-0.000641034
-0.000228584
-0.000278298
-3.84518e-05
-0.000257612
0.000177274
-0.000820519
-0.000608516
-7.21314e-05
-0.000389129
-0.000306398
0.000101361
-3.97218e-05
0.000323573
-1.17329e-05
-0.000298038
-0.000142799
-0.000726295
0.000460539
-0.000433689
-0.000324953
-7.17231e-05
0.000115141
9.75419e-05
5.58212e-05
-0.000162588
-0.000464212
-0.000206072
0.000529626
-0.000171716
-0.00018397
-5.15374e-05
0.00013623
0.000197526
3.50536e-05
-0.000233745
-0.00019221
-0.000271489
0.000569721
-1.77451e-05
-5.86021e-05
0.000177883
0.000253078
0.000255071
0.000132878
-0.000153159
-0.000174692
-0.000103469
0.000642392
0.000373687
0.000227537
0.00019828
0.000421757
0.000251035
0.000116083
-6.40919e-05
-0.000193089
-4.46343e-06
0.000706726
0.000335155
0.000157135
0.000379631
0.000105831
0.000209992
-2.62659e-06
-0.000436721
-0.000103695
-0.000170226
0.000691059
0.000773828
0.000152204
0.000133949
0.000127162
8.75128e-05
-0.000406152
-7.01494e-05
-0.000559203
-9.50753e-05
0.000717046
0.000101007
0.000245154
-0.000139863
0.000312742
-0.000261775
0.000253374
-0.000744602
-8.0237e-05
-0.000493895
0.000407607
0.0011077
0.00061093
0.000801272
0.000511444
0.00074146
0.000266063
0.000372202
0.000154865
-0.000262911
0.000969828
0.00327429
0.0019636
0.00152755
0.00138645
0.00108056
0.000989014
0.000764333
0.00125707
0.00125849
0.00181778
0.00200462
0.000948648
0.000789476
0.000568686
0.00030591
0.000304256
0.000273159
0.00028159
0.000649939
0.00064952
0.00169536
0.000945892
0.000726306
0.00057568
0.000410599
0.000249439
0.000296007
0.000427085
0.000422214
0.000523942
0.00143605
0.000785068
0.000721032
0.000563383
0.000415919
0.0003468
0.000320521
0.000358171
0.000398111
0.000466264
0.00107034
0.000716595
0.000693933
0.000560492
0.000423501
0.000341479
0.000334551
0.000329032
0.000440569
0.000382231
0.00122697
0.000701727
0.000554791
0.000485278
0.000384726
0.000246523
0.000316191
0.000421204
0.000295391
0.000461062
0.000844466
0.00046355
0.000398157
0.000254838
8.09173e-05
0.000165882
0.000250582
0.000121643
0.000523864
0.000356344
0.00101004
0.000272253
0.00010273
1.08335e-05
-2.91725e-05
0.000111408
-6.34561e-05
0.000514758
0.000210815
0.000553488
0.000365786
3.14537e-08
-6.5025e-05
-0.000145072
6.93779e-05
-0.000193674
0.000376426
1.1448e-05
0.000589265
0.000399043
0.000946534
0.000572334
0.000409791
0.000434699
0.000286041
0.000485398
0.000392847
0.000692711
0.00083817
0.000900618
-0.00337733
-0.00245979
-0.00225916
-0.00215656
-0.00184627
-0.00176676
-0.0015242
-0.00121575
-0.00167915
-0.00142711
-0.00198099
-0.00133937
-0.00119623
-0.00113414
-0.0011706
-0.000807627
-0.000913152
-0.000944043
-0.000338697
-0.000632261
-0.00157627
-0.000902573
-0.0010064
-0.000845614
-0.000662561
-0.000780089
-0.000485861
-0.000226729
-0.000505108
-0.000232588
-0.000978643
-0.000818067
-0.000539081
-0.000551136
-0.00050653
-0.000212433
-0.000272367
-0.000262861
5.03398e-05
-9.72596e-05
-0.000763531
-0.000364162
-0.000455525
-0.000287446
-0.000169084
-0.000217418
-3.74978e-05
0.000104175
7.57614e-06
6.84995e-05
-0.000468252
-0.000370946
-0.000154235
-0.000184338
-9.46357e-05
1.07354e-05
6.59358e-05
0.00012593
0.000154733
0.000184572
-0.00037077
-0.000205684
-0.000233211
-6.55711e-05
-9.28387e-05
3.09778e-05
8.45941e-05
8.67278e-05
0.000255027
8.76452e-05
-0.000411163
-0.000246057
-0.000182496
-0.000147837
-1.89731e-05
-9.4635e-06
-1.01998e-05
0.000203394
-2.61584e-05
0.000196815
-0.000402601
-0.000440342
-0.000145431
-0.000139953
-3.40009e-05
-6.12631e-05
3.50917e-05
-0.000146719
7.20582e-05
-0.00024022
-0.000618997
-0.000228626
-0.00013522
4.07401e-06
2.14335e-05
6.74117e-05
1.47628e-05
9.28845e-05
-2.29292e-05
-0.000133557
-7.07359e-05
-0.0001397
-0.00064429
-0.000610347
-0.00090052
-0.000932945
-0.000987948
-0.000498543
-0.000771857
-0.000621261
-0.000355959
-0.000297091
-0.000173596
-0.000577115
-0.000744677
-0.0005564
-0.000650979
-0.000602602
2.64547e-05
-0.000436333
-0.000160614
0.000190496
-0.000185058
-0.000220647
-0.000297038
-0.000520961
-0.000222574
-2.70556e-05
-0.000200352
-0.000229313
-3.54366e-05
8.23653e-05
0.000205099
-1.43818e-05
-0.000146488
9.7734e-06
-8.43335e-05
-1.6764e-05
0.000152324
-0.000112253
-9.36491e-05
0.000375208
0.000212893
0.000154164
0.000106644
-3.22769e-05
0.00016557
0.000167712
0.00020478
-6.35873e-05
0.000236388
0.000274226
0.000304878
0.00021158
8.36404e-05
0.000140897
0.000149701
0.00031696
0.000131219
9.72688e-05
-0.000112088
0.000369209
0.000210063
8.47534e-05
1.40959e-05
2.1928e-05
0.00019217
-1.72083e-05
0.000407787
-0.000115683
0.000314126
5.08689e-05
0.00010243
-8.73701e-05
-9.34575e-05
-5.93624e-05
-0.00019155
0.000318526
-0.000153417
5.60944e-05
-0.000452038
0.00014031
-0.000248988
-0.000139976
-0.000219031
-0.0002972
2.47689e-05
-0.000373309
0.000179698
-0.00048742
-1.45154e-05
0.000125853
1.87584e-05
-7.30781e-05
-0.00010524
-5.28494e-05
-0.000133012
6.3695e-05
8.08526e-05
-0.00038008
-0.0028328
-0.00184191
-0.0019897
-0.00168969
-0.00169774
-0.0015937
-0.00146081
-0.00101408
-0.00134767
-0.00127943
-0.00190052
-0.00114217
-0.000849143
-0.00111007
-0.00117333
-0.00082012
-0.00095521
-0.000864731
-0.000226541
-0.000757703
-0.00111063
-0.000394394
-0.000788429
-0.000642421
-0.00061443
-0.000817556
-0.000410207
-0.000238848
-0.000475257
-0.000465526
-0.000661623
-0.00040541
-0.000118901
-0.000347374
-0.000405872
-0.000139409
-0.000291047
-0.000223277
1.56367e-05
-0.000330305
-0.000409347
0.00016195
-8.82658e-05
-4.22412e-05
-4.08095e-05
-0.000202093
5.87419e-05
6.64299e-05
1.47765e-05
-0.000206526
-8.49308e-07
7.79894e-05
0.000198316
7.41639e-05
-1.88174e-05
9.59676e-05
6.18689e-05
0.00018459
6.8962e-05
-4.71806e-05
-0.000167919
0.000290027
0.000113129
4.31532e-05
-1.03705e-05
-2.03475e-05
0.000149031
-3.14056e-05
0.000281957
-0.000209068
0.00016511
2.05329e-05
5.98156e-05
-8.72998e-05
-9.74978e-05
-4.51667e-05
-0.000184363
0.000237334
-0.00018802
-5.23112e-05
-0.000433749
3.16019e-05
-0.000207626
-0.000157913
-0.000184915
-0.000288812
-1.842e-06
-0.000379218
8.80582e-05
-0.000558954
-0.000207139
1.90516e-05
-6.71306e-05
-0.000116879
-0.00016086
-0.000109558
-0.000201049
-4.14535e-05
-4.94016e-05
-0.000513961
-0.00318015
-0.00211709
-0.00205554
-0.00181013
-0.00167327
-0.00160595
-0.0013612
-0.00118403
-0.00146467
-0.00141495
-0.00207445
-0.00115047
-0.000874019
-0.00104958
-0.00100899
-0.000727512
-0.000893568
-0.000790652
-0.000351394
-0.000698786
-0.00135822
-0.000582764
-0.000865835
-0.000634339
-0.000584996
-0.000739954
-0.000384173
-0.000301808
-0.000498078
-0.000387121
-0.000905173
-0.000565218
-0.000230242
-0.000405396
-0.000388959
-0.000134548
-0.000323384
-0.000243597
-2.14971e-05
-0.000258152
-0.000526097
7.78166e-06
-0.000210577
-7.35963e-05
-4.55122e-05
-0.000197426
4.1506e-05
4.47143e-05
-2.57494e-05
-0.000102906
-0.000178497
-2.42425e-05
0.000149622
5.11039e-05
-6.19132e-06
0.000119862
4.66998e-05
0.000142841
9.1498e-05
4.17618e-05
-0.000159486
0.000218488
8.66469e-05
5.39126e-05
3.80019e-05
7.70652e-07
0.0001164
8.13859e-06
0.000230493
-8.86604e-05
7.41262e-05
2.24972e-05
6.2562e-05
-4.06125e-05
-4.09168e-05
-4.38446e-05
-0.000120353
0.000152244
-0.000152505
3.81575e-05
-0.000355442
1.5357e-05
-0.000155108
-7.95638e-05
-0.000152471
-0.000174038
-7.78402e-05
-0.00031024
2.08532e-06
-0.000470521
-0.00020856
5.10707e-06
-2.96769e-05
-7.85461e-05
-7.88681e-05
-9.85581e-05
-0.000160069
-6.9634e-05
-0.000141585
-0.000422778
0.00149765
0.0010139
0.000657746
0.000690032
0.00040482
0.000329797
0.000293641
0.000437794
0.00044318
0.000589266
0.000700293
0.000454703
0.000472092
0.000143495
8.18069e-05
9.12974e-05
-3.28523e-05
0.000114637
0.000311111
0.000196094
0.000715454
0.000600009
0.00033376
0.000336415
0.000159206
1.80366e-05
0.000210494
0.000173017
0.00019606
0.000167706
0.000648493
0.000482742
0.000516963
0.000309373
0.000248486
0.000260687
0.000123922
0.000257039
0.000242046
0.000200568
0.000475442
0.000571002
0.000477321
0.000428796
0.000310199
0.000203909
0.000326127
0.000223092
0.000344096
0.000168508
0.000727356
0.000550474
0.000465248
0.000391148
0.000285481
0.000262672
0.000235241
0.000398308
0.000204268
0.000293921
0.00038742
0.000436493
0.000369433
0.000195889
0.000119322
0.000113206
0.000246604
5.73311e-05
0.000446399
0.000129678
0.000639786
0.000218101
0.000130374
1.82376e-05
-2.99872e-05
4.16576e-05
-9.71729e-05
0.000367324
1.43403e-05
0.00028537
-2.74644e-05
0.000148224
-0.00011527
-6.12535e-05
-5.62817e-05
-0.000166831
0.000156342
-0.000157219
0.000321061
-5.50016e-05
0.000406527
0.000312779
0.000229307
0.000163567
0.000107923
0.000173848
0.000104593
0.000294926
0.000348099
0.000163213
-0.00288905
-0.0016972
-0.00105861
-0.000859331
-0.000401655
-0.000307278
4.97445e-05
-0.000189999
-0.000214236
-0.000170718
-0.00153871
-0.000615824
-0.000543351
-0.000249001
-0.000100169
8.15899e-05
-4.71485e-05
6.64148e-05
-2.38168e-05
0.000110539
-0.000936558
-0.000580117
-0.000468274
-0.000204204
-7.40006e-05
-4.4999e-05
0.000116942
2.35008e-05
6.63525e-06
0.000208056
-0.000642503
-0.000432719
-0.000222589
-0.000194449
-3.30258e-05
0.000115286
3.89858e-06
8.72741e-05
0.000140886
0.00023312
-0.000119088
-0.000165267
-0.000236334
8.49218e-09
6.45048e-05
6.225e-05
0.000164479
0.000161007
0.000121194
0.000308841
-0.000128161
-0.000102889
7.3236e-05
9.14552e-06
0.000144274
0.000191071
0.000159967
0.000172474
0.000240298
0.000331113
0.000304867
7.06771e-05
1.02613e-05
0.00019447
0.000154652
0.0002139
0.000190737
0.000250435
0.000199283
0.00035326
9.83725e-05
0.000143411
0.000146769
0.000164951
0.000239679
0.000214962
0.000246476
0.000190096
0.0002319
0.00036801
0.00047517
1.79163e-05
0.000262404
0.00019775
0.000266527
0.00026875
0.000186021
0.000236277
0.000154147
0.000287815
0.00023603
0.000114102
0.000155749
0.00024626
0.000261371
0.000258335
0.000259573
0.000236354
0.000167436
0.000379638
0.00404888
0.00275343
0.00268941
0.00254001
0.00236158
0.00222403
0.00210691
0.00182737
0.00216528
0.00223804
0.00255065
0.00148482
0.00121291
0.00133364
0.00133326
0.00111086
0.00111058
0.0012183
0.000793513
0.00119168
0.00199445
0.000936189
0.00115421
0.00103727
0.000900256
0.000980142
0.000844503
0.000640616
0.000912585
0.000851175
0.00138837
0.000948782
0.000676375
0.000745346
0.000781366
0.000578178
0.000619525
0.000719635
0.000446403
0.000756608
0.0012119
0.000460463
0.00064516
0.000585972
0.000481063
0.000580105
0.000474448
0.000364521
0.000579942
0.000573291
0.000898982
0.000603951
0.00039552
0.000403
0.00046626
0.000306085
0.000378845
0.000458859
0.000330774
0.000560652
0.000988251
0.000316748
0.000347686
0.000334599
0.000219835
0.000328615
0.000299486
0.00026241
0.00042605
0.000528091
0.000801163
0.000406789
0.000255777
0.000216327
0.000240651
0.000251778
0.000240833
0.000389913
0.000379061
0.000559689
0.000958218
0.000301094
0.000316125
0.000250238
0.000329671
0.000264666
0.000403399
0.00036957
0.000480563
0.000677479
0.00109986
0.000532661
0.000475266
0.000499774
0.000452809
0.000519762
0.000515171
0.000591073
0.000672365
0.000915606
0.00078348
0.000567355
0.00115541
0.00118988
0.00151638
0.00151574
0.00171113
0.00110172
0.00141146
0.00142664
0.000837923
0.000613559
0.000544944
0.000988223
0.00118211
0.00103047
0.00103692
0.00109208
0.000434613
0.00107357
0.000818697
0.000175847
0.000620633
0.000671563
0.000746096
0.000931251
0.000713696
0.000469514
0.000720958
0.000852889
0.00055669
0.000385648
0.000237632
0.00047779
0.000614912
0.000464739
0.000520283
0.000544728
0.000318939
0.000761838
0.00080989
9.27931e-05
0.000294636
0.000353447
0.000366664
0.000504411
0.000316904
0.000286996
0.000385179
0.000659639
0.000480547
0.000294842
0.000213197
0.000274699
0.000398049
0.000270378
0.000309641
0.000242331
0.000314894
0.000574266
0.000887144
0.000194342
0.000261036
0.000355728
0.000318429
0.000380952
0.000177071
0.000352575
0.000181278
0.000656072
0.000592831
0.000421511
0.000340255
0.000382962
0.000439552
0.000285807
0.000457915
0.000119316
0.000455746
0.000564584
0.00112913
0.000346593
0.000531726
0.000500519
0.000459176
0.000593589
0.000240537
0.000579288
0.000208656
0.00081809
0.00097848
0.000449438
0.000506261
0.000537799
0.000593486
0.000499001
0.000569584
0.000430871
0.000361977
0.000932364
0.0042161
0.00275803
0.00294192
0.00263297
0.00261951
0.00247133
0.00238191
0.00174161
0.00222994
0.00216716
0.0028573
0.00174731
0.00147618
0.00175202
0.0018406
0.0014181
0.00149671
0.00150192
0.000632566
0.00136862
0.00204919
0.000932816
0.00139823
0.00124362
0.00117162
0.00136326
0.000934871
0.000627288
0.000992159
0.000971891
0.00144908
0.000997378
0.000655716
0.000910112
0.000952314
0.000608815
0.000721955
0.000699667
0.000337307
0.000821698
0.00131753
0.000374038
0.000695684
0.000604837
0.000544109
0.000690273
0.000371113
0.000299457
0.00044671
0.000641255
0.00089783
0.000594091
0.000361626
0.000482557
0.000522121
0.000304653
0.000357053
0.00025381
0.000288511
0.000528681
0.0011247
0.00029475
0.000447905
0.000419361
0.000377798
0.000405413
0.000171718
0.000334413
0.000163769
0.000637775
0.000856628
0.000535752
0.000399162
0.000438763
0.000440717
0.000288953
0.000450826
0.000116742
0.000492345
0.000541691
0.00124775
0.00047248
0.000551877
0.000538428
0.000471192
0.000588046
0.000277559
0.000628068
0.000274564
0.000935785
0.00128624
0.000642337
0.0006598
0.000641408
0.000663249
0.000567979
0.000634639
0.000502944
0.000488125
0.00107225
0.00540569
0.00360775
0.00342869
0.00307523
0.00284355
0.00260272
0.00244675
0.00179396
0.00224526
0.00228782
0.00350766
0.002119
0.00197274
0.00195106
0.00201707
0.00147737
0.00151964
0.00148262
0.000679003
0.0014541
0.002513
0.00143579
0.00173217
0.00151818
0.00133933
0.00143673
0.000956946
0.000661008
0.000986961
0.00106522
0.00199065
0.00133744
0.00100155
0.00118001
0.00110923
0.000700138
0.000754601
0.000683119
0.000386411
0.000882446
0.00153613
0.000724117
0.00102187
0.000821768
0.000711912
0.000756869
0.00039853
0.000340448
0.000437202
0.000719607
0.00134586
0.000862583
0.000570184
0.000735963
0.000620151
0.000407231
0.000384709
0.00023267
0.000343494
0.000583088
0.00121546
0.000491654
0.000707036
0.000502805
0.000530051
0.000414429
0.000169243
0.00037737
0.000146048
0.00071741
0.00118335
0.000649997
0.000511198
0.000565548
0.000471814
0.000295886
0.000480917
6.0245e-05
0.000552195
0.000601613
0.00117981
0.00064913
0.000540575
0.000626856
0.000434492
0.000624494
0.000203402
0.000679588
0.000265402
0.00104078
0.00148318
0.000795492
0.000814813
0.00068484
0.000729124
0.000562255
0.00066785
0.000512841
0.000517786
0.00117886
0.000900352
0.000603883
0.00106502
0.000896374
0.00108682
0.00102907
0.00114475
0.0004065
0.000838637
0.000741357
0.00080579
0.000770843
0.000842788
0.000994434
0.00124585
0.000843112
0.000881754
0.000877098
2.49339e-05
0.000765879
0.000393493
0.000254506
0.000658449
0.000692175
0.000702882
0.000870594
0.000475343
0.000172434
0.000427894
0.000580233
0.000396978
0.000301881
0.000231455
0.000494214
0.000555623
0.000315884
0.000329306
0.000252855
4.9175e-05
0.00047503
0.00037353
6.38486e-05
0.000312803
0.000310286
0.000342598
0.00039065
0.000112831
9.81133e-05
6.39183e-05
0.000454945
0.000345149
0.000225493
0.000163644
0.000367652
0.00032502
0.000245199
0.000168356
-4.46302e-05
0.000175187
0.000331631
0.000486376
0.000125586
0.000373757
0.00029688
0.000433839
0.000286196
1.64595e-05
0.000306946
-0.0001207
0.000533687
0.000458716
0.000353291
0.000343197
0.000482389
0.000433653
0.000219397
0.000472464
-0.000172925
0.000412026
0.000388237
0.000696726
0.000428173
0.000451399
0.000594729
0.000351243
0.000648052
-9.41903e-06
0.000598616
-4.04258e-05
0.000768201
0.000809747
0.000432173
0.000579045
0.000473368
0.000592885
0.000341887
0.000467589
0.000202484
7.8375e-05
0.000785797
0.00606363
0.00396374
0.0035791
0.00308209
0.00266325
0.00239696
0.00206845
0.00182213
0.00224108
0.00212194
0.00396464
0.00233516
0.00201209
0.00183938
0.00173737
0.00128643
0.00133876
0.00129182
0.000776854
0.00113314
0.00271422
0.00153369
0.00157247
0.00137304
0.00113012
0.00116283
0.000823206
0.000614161
0.000820312
0.000742869
0.00209806
0.00118777
0.000946425
0.000960494
0.000863989
0.000558917
0.000603476
0.000545217
0.00036531
0.000559634
0.00141846
0.000645431
0.000791622
0.00062267
0.000516911
0.000530961
0.000345269
0.000291684
0.000329631
0.000429372
0.00121453
0.000613495
0.000393453
0.000492588
0.00041472
0.000305895
0.000294503
0.000204464
0.000301416
0.000307637
0.000975459
0.000237397
0.000435499
0.000304511
0.000347269
0.00027516
0.000263942
0.000354777
0.000179856
0.000480684
0.000779813
0.000371908
0.000217371
0.000362878
0.000250973
0.000383422
0.000389688
0.000270533
0.00058198
0.000416899
0.000868328
0.000232626
0.000356679
0.000273859
0.000409053
0.000353149
0.000457158
0.000665901
0.000516943
0.000973344
0.000984502
0.000459484
0.000449703
0.000439475
0.000385629
0.000448493
0.000531898
0.000524654
0.000740224
0.000965143
-0.00235983
-0.00194552
-0.00117225
-0.00132602
-0.000844097
-0.000748322
-0.0004408
-0.00084493
-0.000664539
-0.000730061
-0.00104243
-0.000408642
-0.000438739
-6.53435e-05
0.000116123
6.43844e-05
4.0101e-05
1.4327e-05
-0.000429823
-0.000132833
-0.00134848
-0.000863383
-0.000480687
-0.000291979
-0.000112919
2.48224e-05
-9.50013e-05
-0.000246533
-0.000265803
-6.0022e-05
-0.000807866
-0.000787766
-0.000632507
-0.000387143
-0.000211533
-0.000148169
-0.000172486
-0.000246075
-0.000195045
-8.52387e-05
-0.000773425
-0.000727917
-0.000599329
-0.000398029
-0.000223879
-0.000158895
-0.000193112
-0.000121587
-0.000309941
4.49048e-05
-0.000693554
-0.000647097
-0.000478256
-0.000343464
-0.000165495
-6.84816e-05
-0.000111501
-0.000276901
-6.92081e-06
-4.34384e-05
-0.000351769
-0.000640068
-0.000382146
-0.000129358
1.00567e-05
2.64169e-05
-7.59466e-05
0.000155571
-0.000272475
0.000167247
-0.000828201
-0.000275197
-0.000276662
4.68983e-05
0.000132242
0.000139008
0.000273225
-0.000184308
0.00020027
5.8158e-05
1.11036e-05
-0.000604596
0.000162347
6.25662e-05
0.000232184
0.000311041
3.15958e-08
0.000342179
-0.000143539
0.0003035
-0.000630551
-0.00042749
-0.000210627
-6.00868e-06
4.88338e-05
7.57256e-06
6.68022e-05
-0.000100166
-0.000185494
0.000196324
0.0065522
0.00471626
0.00377322
0.0031857
0.00210997
0.0018054
0.0012577
0.00121293
0.00154762
0.00119289
0.00329886
0.00261986
0.00243609
0.00161042
0.0014451
0.000805866
0.000867209
0.000848378
0.00049331
0.000523304
0.00227665
0.00203509
0.00184894
0.00147022
0.000958611
0.000863809
0.000557008
0.000328539
0.000578677
0.000180222
0.00144207
0.00163466
0.00134241
0.00110691
0.000823172
0.000421831
0.000388363
0.000422539
8.76699e-05
0.000128287
0.000711236
0.00117804
0.00118735
0.000791615
0.00052293
0.000400305
0.000278997
3.3032e-05
0.000260116
-8.38998e-05
0.000925564
0.000986595
0.000728287
0.000749846
0.000347642
0.00023453
9.13194e-05
0.000202378
-7.46176e-05
-6.65081e-05
-7.7845e-05
0.00089059
0.00081776
0.000308215
0.00032421
2.86012e-05
0.000128831
-0.000141734
0.000100995
-0.000160136
0.000947254
0.000443175
0.00059223
0.000290086
2.48649e-05
-1.14217e-05
-0.000174909
5.26726e-05
-0.000102422
-0.000130867
-0.000495385
0.00111529
-8.12556e-05
0.000212772
-0.000222416
-0.000183433
-5.53191e-05
-0.000169042
0.000100037
-8.80462e-05
0.000691246
0.000689327
0.000453517
5.07396e-05
7.54949e-06
-5.27137e-05
-5.62224e-05
3.18468e-05
0.000187675
-5.0156e-05
-0.00637532
-0.00410779
-0.00352892
-0.00312387
-0.00258133
-0.00220551
-0.00174019
-0.00185131
-0.00173796
-0.0016623
-0.00408511
-0.00186873
-0.00149635
-0.00127982
-0.00100362
-0.000832021
-0.000789609
-0.000713701
-0.000850188
-0.000684539
-0.00307866
-0.00137797
-0.00118417
-0.00098673
-0.000763539
-0.000651293
-0.000590808
-0.000612299
-0.000586262
-0.000476922
-0.002271
-0.00106816
-0.000845081
-0.000731335
-0.000623099
-0.000482447
-0.000498002
-0.000445515
-0.000458984
-0.000339024
-0.0017904
-0.000646565
-0.000695337
-0.000568385
-0.00044299
-0.000418769
-0.000378369
-0.000370626
-0.000354073
-0.000259047
-0.00143803
-0.000651702
-0.000405519
-0.000380164
-0.000365534
-0.000267207
-0.000336984
-0.000304211
-0.0003355
-0.00019592
-0.00132701
-0.000203575
-0.000281842
-0.000214293
-0.000129762
-0.000203129
-0.000303889
-0.000295829
-0.000321385
-0.000274056
-0.000899581
-0.00028817
6.13145e-06
-8.72582e-05
-3.30457e-05
-0.000301847
-0.000194185
-0.000433874
-0.000447399
-0.000275211
-0.000939085
0.000156266
-0.000156639
7.39434e-05
-0.000316581
-3.98581e-05
-0.00055919
-0.000405429
-0.000618825
-0.000642536
-0.000911425
-0.000369679
-0.000260788
-0.000375041
-0.000213167
-0.000431674
-0.000406794
-0.000506723
-0.000766778
-0.00052149
0.00327412
0.00233691
0.00173498
0.00139092
0.000821755
0.000673915
7.413e-05
0.000865283
0.000500146
0.000345119
0.00208274
0.00100873
0.000546212
0.000330637
-3.0324e-05
-8.51852e-05
0.000161527
-7.6616e-05
0.000516252
-0.000224092
0.00134085
0.000736758
0.000574968
0.000198242
2.55675e-05
-6.94553e-07
-8.78368e-06
0.000324937
0.000189624
-0.000284315
0.000849657
0.000559333
0.00023818
0.000119298
-2.68498e-05
-7.78629e-05
0.000179372
0.000161457
0.000183572
-0.000276895
0.000147511
0.00014749
0.000158851
-6.64211e-05
-0.000156626
-5.58374e-05
4.98601e-05
8.43482e-05
0.000206188
-0.000406996
-1.3533e-05
2.06237e-05
-0.000150555
-0.000220336
-0.000195849
-0.000207847
-2.00459e-07
0.000211499
-6.03642e-05
-0.000380677
-0.000444905
-0.000195136
-0.000263005
-0.000263013
-0.000360746
-0.000179714
0.000153636
-0.000144036
0.00023617
-0.000521518
-0.00049578
-0.000315369
-0.000343612
-0.000389101
-0.000374875
-2.88571e-05
-0.000281687
0.00038075
-0.000146479
-0.000469517
-0.000634272
-0.000339555
-0.00033812
-0.000506071
-0.000173169
-0.000512908
0.000336431
-0.000264133
0.000356758
-0.000445321
-0.000794837
-0.000405431
-0.00049701
-0.000361884
-0.000507047
-0.000186972
-0.000267438
-6.67839e-05
0.000274576
-0.000715347
-0.00655838
-0.00475431
-0.0045061
-0.00410513
-0.00349785
-0.00305435
-0.00277295
-0.00189935
-0.00247757
-0.00225794
-0.00421598
-0.00263276
-0.00245625
-0.00212995
-0.00219041
-0.00151376
-0.00140535
-0.00153393
-0.000588576
-0.00141762
-0.00325191
-0.00183277
-0.00197667
-0.00174902
-0.00137096
-0.00138053
-0.000943072
-0.000468209
-0.000907531
-0.00095891
-0.00238715
-0.00163762
-0.00124305
-0.00126451
-0.00115676
-0.000679748
-0.000573661
-0.000600998
-0.000184864
-0.000789103
-0.00184538
-0.000949808
-0.00118135
-0.000927284
-0.000714041
-0.000671915
-0.000336013
-0.000126287
-0.000325058
-0.000573793
-0.00167237
-0.001061
-0.000671499
-0.000791924
-0.000585288
-0.00034636
-0.000216533
-0.000131506
-0.000120633
-0.000500854
-0.00128804
-0.00061329
-0.000780994
-0.000427431
-0.000437753
-0.000241829
-2.89961e-05
-0.000103801
-3.87411e-05
-0.000577611
-0.00145824
-0.000647478
-0.000479634
-0.000445606
-0.000268774
-0.000116503
-0.000183504
5.89151e-05
-0.000317239
-0.000564208
-0.000948621
-0.000713166
-0.00031853
-0.000449221
-0.000199059
-0.000338317
-3.13498e-05
-0.000406997
-0.000165009
-0.00088025
-0.00154989
-0.000857685
-0.000810127
-0.000576704
-0.000586935
-0.000437591
-0.000509698
-0.00048285
-0.000439768
-0.00117329
1.32932e-05
-3.1757e-05
-0.000657659
-0.000569128
-0.00105817
-0.00110222
-0.00140974
-0.00074504
-0.00116972
-0.00122345
-0.000259993
-0.000531861
-0.000476149
-0.000951272
-0.00112454
-0.00102509
-0.000952018
-0.00101975
-0.000207778
-0.00102132
-0.000258104