/*--------------------------------*- C++ -*----------------------------------*\
| =========                 |                                                 |
| \\      /  F ield         | OpenFOAM: The Open Source CFD Toolbox           |
|  \\    /   O peration     | Version:  2406                                  |
|   \\  /    A nd           | Website:  www.openfoam.com                      |
|    \\/     M anipulation  |                                                 |
\*---------------------------------------------------------------------------*/
FoamFile
{
    version     2.0;
    format      ascii;
    arch        "LSB;label=32;scalar=64";
    class       volScalarField;
    location    "100";
    object      magR;
}
// * * * * * * * * * * * * * * * * * * * * * * * * * * * * * * * * * * * * * //

dimensions      [0 2 -2 0 0 0 0];

internalField   nonuniform List<scalar> 
25000
(
4.32884e-05
4.1725e-05
3.83647e-05
3.76233e-05
3.72795e-05
3.72894e-05
3.76299e-05
3.82899e-05
4.17904e-05
4.36702e-05
4.18433e-05
4.10203e-05
3.73574e-05
3.53956e-05
3.44357e-05
3.44013e-05
3.52617e-05
3.70794e-05
4.04968e-05
4.16704e-05
3.85013e-05
3.74303e-05
3.46135e-05
3.29111e-05
3.20657e-05
3.20362e-05
3.28073e-05
3.44073e-05
3.70523e-05
3.81859e-05
3.77177e-05
3.54444e-05
3.29313e-05
3.12849e-05
3.04624e-05
3.04447e-05
3.12194e-05
3.27964e-05
3.52383e-05
3.75302e-05
3.73484e-05
3.44953e-05
3.20873e-05
3.04701e-05
2.96659e-05
2.96545e-05
3.04322e-05
3.20121e-05
3.43598e-05
3.71944e-05
3.73275e-05
3.44468e-05
3.20641e-05
3.04544e-05
2.96579e-05
2.96516e-05
3.04328e-05
3.20141e-05
3.43623e-05
3.72026e-05
3.76597e-05
3.5311e-05
3.28357e-05
3.12369e-05
3.04421e-05
3.04393e-05
3.12209e-05
3.28015e-05
3.52463e-05
3.75545e-05
3.83065e-05
3.71114e-05
3.44466e-05
3.28225e-05
3.20288e-05
3.20255e-05
3.28088e-05
3.44165e-05
3.70643e-05
3.82248e-05
4.17888e-05
4.05454e-05
3.71093e-05
3.52667e-05
3.438e-05
3.43766e-05
3.5257e-05
3.70851e-05
4.05098e-05
4.17231e-05
4.37118e-05
4.17187e-05
3.82231e-05
3.75573e-05
3.72111e-05
3.72131e-05
3.75567e-05
3.82209e-05
4.17225e-05
4.36639e-05
5.89166e-05
5.78442e-05
5.4415e-05
5.36583e-05
5.3276e-05
5.32629e-05
5.36935e-05
5.45407e-05
5.83825e-05
6.00377e-05
5.80176e-05
5.54521e-05
5.31516e-05
5.21847e-05
5.15671e-05
5.15654e-05
5.21671e-05
5.31676e-05
5.53523e-05
5.82383e-05
5.46727e-05
5.33654e-05
5.13428e-05
5.04578e-05
5.00109e-05
5.00193e-05
5.04556e-05
5.12433e-05
5.31091e-05
5.44654e-05
5.38356e-05
5.23385e-05
5.05374e-05
4.95397e-05
4.90463e-05
4.90566e-05
4.95303e-05
5.04454e-05
5.21604e-05
5.3648e-05
5.34146e-05
5.17037e-05
5.00893e-05
4.90815e-05
4.86092e-05
4.86072e-05
4.90587e-05
5.00205e-05
5.15534e-05
5.32226e-05
5.33744e-05
5.16682e-05
5.00978e-05
4.90946e-05
4.86241e-05
4.86184e-05
4.90673e-05
5.00269e-05
5.15569e-05
5.32355e-05
5.37966e-05
5.22693e-05
5.05237e-05
4.95833e-05
4.90945e-05
4.90886e-05
4.95527e-05
5.04624e-05
5.21714e-05
5.36882e-05
5.46222e-05
5.32029e-05
5.13245e-05
5.05103e-05
5.00618e-05
5.00539e-05
5.04824e-05
5.1268e-05
5.31263e-05
5.45344e-05
5.84182e-05
5.54439e-05
5.3242e-05
5.22145e-05
5.15907e-05
5.15832e-05
5.21925e-05
5.31967e-05
5.53853e-05
5.83544e-05
6.01567e-05
5.83753e-05
5.45514e-05
5.37059e-05
5.32544e-05
5.32474e-05
5.36799e-05
5.45151e-05
5.8342e-05
6.00666e-05
5.35849e-05
5.12387e-05
4.96144e-05
4.83582e-05
4.76143e-05
4.75272e-05
4.81046e-05
4.94277e-05
5.17343e-05
5.5163e-05
5.14458e-05
4.85692e-05
4.75588e-05
4.68212e-05
4.62986e-05
4.62815e-05
4.67737e-05
4.75548e-05
4.84083e-05
5.16134e-05
4.99076e-05
4.78091e-05
4.61799e-05
4.54247e-05
4.50354e-05
4.50638e-05
4.55281e-05
4.62366e-05
4.75137e-05
4.94418e-05
4.85277e-05
4.69859e-05
4.55098e-05
4.47083e-05
4.42766e-05
4.43084e-05
4.47768e-05
4.55293e-05
4.68177e-05
4.81758e-05
4.77646e-05
4.6443e-05
4.51214e-05
4.43151e-05
4.39195e-05
4.39272e-05
4.43175e-05
4.50837e-05
4.63239e-05
4.76024e-05
4.76714e-05
4.64004e-05
4.51488e-05
4.43496e-05
4.39465e-05
4.39425e-05
4.43271e-05
4.50889e-05
4.63214e-05
4.76078e-05
4.82392e-05
4.68779e-05
4.55994e-05
4.48335e-05
4.43585e-05
4.43519e-05
4.4803e-05
4.55436e-05
4.68138e-05
4.81976e-05
4.95376e-05
4.7567e-05
4.63161e-05
4.55979e-05
4.51263e-05
4.51173e-05
4.55678e-05
4.6265e-05
4.75159e-05
4.94939e-05
5.17982e-05
4.84927e-05
4.76619e-05
4.68707e-05
4.63584e-05
4.63483e-05
4.6842e-05
4.76144e-05
4.84523e-05
5.17515e-05
5.53349e-05
5.17859e-05
4.95413e-05
4.82352e-05
4.76338e-05
4.76219e-05
4.81961e-05
4.94894e-05
5.17495e-05
5.52551e-05
4.12132e-05
3.79226e-05
3.72741e-05
3.53656e-05
3.44837e-05
3.44e-05
3.49034e-05
3.63296e-05
3.7357e-05
4.1763e-05
3.81544e-05
3.52564e-05
3.44345e-05
3.35051e-05
3.30798e-05
3.30924e-05
3.3502e-05
3.43444e-05
3.46861e-05
3.73341e-05
3.75316e-05
3.46629e-05
3.30899e-05
3.22853e-05
3.19018e-05
3.19345e-05
3.24504e-05
3.3304e-05
3.43614e-05
3.64883e-05
3.54963e-05
3.36368e-05
3.23557e-05
3.16267e-05
3.11974e-05
3.12239e-05
3.17134e-05
3.24831e-05
3.36186e-05
3.51159e-05
3.46226e-05
3.32034e-05
3.19704e-05
3.12266e-05
3.08338e-05
3.08413e-05
3.12512e-05
3.20068e-05
3.32272e-05
3.46145e-05
3.45408e-05
3.31923e-05
3.20042e-05
3.1256e-05
3.08573e-05
3.08615e-05
3.12646e-05
3.20121e-05
3.32183e-05
3.46038e-05
3.50272e-05
3.35868e-05
3.25083e-05
3.17612e-05
3.12879e-05
3.12878e-05
3.17562e-05
3.24998e-05
3.35944e-05
3.50921e-05
3.64158e-05
3.43421e-05
3.33711e-05
3.25433e-05
3.20448e-05
3.20393e-05
3.25227e-05
3.334e-05
3.43377e-05
3.64772e-05
3.74031e-05
3.47454e-05
3.44873e-05
3.3659e-05
3.32542e-05
3.32443e-05
3.3628e-05
3.44363e-05
3.47217e-05
3.74249e-05
4.19581e-05
3.74997e-05
3.65761e-05
3.51569e-05
3.46355e-05
3.46223e-05
3.51092e-05
3.65014e-05
3.74455e-05
4.19128e-05
3.24983e-05
2.89813e-05
2.80552e-05
2.59636e-05
2.52731e-05
2.53103e-05
2.57481e-05
2.70777e-05
2.77975e-05
3.17864e-05
2.92171e-05
2.61811e-05
2.50812e-05
2.39938e-05
2.36659e-05
2.37232e-05
2.41108e-05
2.5124e-05
2.56525e-05
2.7875e-05
2.82175e-05
2.52481e-05
2.37866e-05
2.28573e-05
2.23927e-05
2.23916e-05
2.29544e-05
2.40447e-05
2.51715e-05
2.73222e-05
2.6009e-05
2.40457e-05
2.28855e-05
2.2063e-05
2.15375e-05
2.15243e-05
2.20544e-05
2.29942e-05
2.42318e-05
2.59795e-05
2.53332e-05
2.37159e-05
2.24059e-05
2.15386e-05
2.10611e-05
2.10541e-05
2.15492e-05
2.24731e-05
2.38589e-05
2.55162e-05
2.53679e-05
2.37526e-05
2.24071e-05
2.15186e-05
2.10526e-05
2.10656e-05
2.15595e-05
2.24762e-05
2.38453e-05
2.54895e-05
2.5793e-05
2.41329e-05
2.29602e-05
2.20609e-05
2.15579e-05
2.15699e-05
2.20945e-05
2.30065e-05
2.4188e-05
2.59039e-05
2.70842e-05
2.50696e-05
2.40621e-05
2.30128e-05
2.24814e-05
2.2487e-05
2.30201e-05
2.40677e-05
2.51095e-05
2.72201e-05
2.7764e-05
2.56378e-05
2.52289e-05
2.4226e-05
2.3855e-05
2.38536e-05
2.42149e-05
2.51965e-05
2.564e-05
2.78566e-05
3.19196e-05
2.794e-05
2.73254e-05
2.59619e-05
2.55075e-05
2.55041e-05
2.59331e-05
2.72615e-05
2.7896e-05
3.19314e-05
2.72546e-05
2.38926e-05
2.26719e-05
2.10566e-05
2.07545e-05
2.0923e-05
2.1257e-05
2.23046e-05
2.29637e-05
2.61233e-05
2.41016e-05
2.14956e-05
2.03883e-05
1.94949e-05
1.9305e-05
1.93857e-05
1.97276e-05
2.07177e-05
2.14387e-05
2.31282e-05
2.27466e-05
2.04794e-05
1.94541e-05
1.85972e-05
1.80942e-05
1.80506e-05
1.85664e-05
1.96688e-05
2.07385e-05
2.25522e-05
2.10201e-05
1.94702e-05
1.85817e-05
1.77358e-05
1.71645e-05
1.71146e-05
1.76042e-05
1.85746e-05
1.97672e-05
2.13804e-05
2.07241e-05
1.92897e-05
1.80616e-05
1.71439e-05
1.66407e-05
1.66156e-05
1.71132e-05
1.80847e-05
1.94167e-05
2.09639e-05
2.08827e-05
1.93628e-05
1.80309e-05
1.7083e-05
1.66026e-05
1.66106e-05
1.71135e-05
1.80856e-05
1.94086e-05
2.09322e-05
2.12241e-05
1.97133e-05
1.85436e-05
1.7586e-05
1.71034e-05
1.7115e-05
1.76186e-05
1.8582e-05
1.97323e-05
2.12784e-05
2.2253e-05
2.06482e-05
1.96633e-05
1.8572e-05
1.80757e-05
1.80855e-05
1.85867e-05
1.96731e-05
2.06683e-05
2.23703e-05
2.28699e-05
2.13964e-05
2.07685e-05
1.97476e-05
1.94035e-05
1.94075e-05
1.97494e-05
2.07431e-05
2.13862e-05
2.29834e-05
2.60987e-05
2.30843e-05
2.24754e-05
2.13266e-05
2.09435e-05
2.09493e-05
2.13133e-05
2.24213e-05
2.30326e-05
2.61491e-05
2.39864e-05
2.13131e-05
2.02435e-05
1.92401e-05
1.92742e-05
1.95299e-05
1.97893e-05
2.06138e-05
2.12209e-05
2.3413e-05
2.15563e-05
1.97234e-05
1.88672e-05
1.82841e-05
1.81766e-05
1.82542e-05
1.85629e-05
1.94516e-05
2.02589e-05
2.14512e-05
2.03127e-05
1.89325e-05
1.83648e-05
1.76458e-05
1.71374e-05
1.70833e-05
1.7523e-05
1.84995e-05
1.94183e-05
2.08242e-05
1.91941e-05
1.8242e-05
1.76152e-05
1.68014e-05
1.62671e-05
1.62223e-05
1.6627e-05
1.74875e-05
1.85074e-05
1.97862e-05
1.92161e-05
1.81454e-05
1.70949e-05
1.62455e-05
1.58122e-05
1.57862e-05
1.62021e-05
1.70662e-05
1.81793e-05
1.94132e-05
1.94429e-05
1.82105e-05
1.70552e-05
1.619e-05
1.57761e-05
1.57758e-05
1.6192e-05
1.70628e-05
1.8179e-05
1.93902e-05
1.97179e-05
1.8523e-05
1.74867e-05
1.66066e-05
1.61966e-05
1.61957e-05
1.66109e-05
1.7485e-05
1.84887e-05
1.96941e-05
2.05668e-05
1.93722e-05
1.84839e-05
1.74852e-05
1.70602e-05
1.70654e-05
1.7489e-05
1.84752e-05
1.93535e-05
2.06128e-05
2.11371e-05
2.02033e-05
1.94432e-05
1.84914e-05
1.81702e-05
1.81764e-05
1.84997e-05
1.94241e-05
2.01769e-05
2.12102e-05
2.33154e-05
2.13262e-05
2.07087e-05
1.9725e-05
1.93956e-05
1.94034e-05
1.97218e-05
2.06572e-05
2.12599e-05
2.33356e-05
2.26039e-05
2.0593e-05
1.97581e-05
1.91869e-05
1.93676e-05
1.95991e-05
1.97975e-05
2.04578e-05
2.10198e-05
2.25479e-05
2.08567e-05
1.95827e-05
1.90007e-05
1.86246e-05
1.84865e-05
1.85386e-05
1.88287e-05
1.95962e-05
2.03496e-05
2.12778e-05
1.98502e-05
1.90678e-05
1.87306e-05
1.80403e-05
1.75205e-05
1.74917e-05
1.78863e-05
1.87323e-05
1.94885e-05
2.05794e-05
1.91621e-05
1.8598e-05
1.80244e-05
1.71914e-05
1.6703e-05
1.66946e-05
1.70518e-05
1.78134e-05
1.86895e-05
1.96823e-05
1.93075e-05
1.84697e-05
1.75014e-05
1.6699e-05
1.63286e-05
1.63143e-05
1.66694e-05
1.74413e-05
1.8384e-05
1.93566e-05
1.94825e-05
1.84891e-05
1.74762e-05
1.66823e-05
1.63174e-05
1.63088e-05
1.66547e-05
1.74363e-05
1.83947e-05
1.93497e-05
1.96948e-05
1.87671e-05
1.78465e-05
1.70427e-05
1.66795e-05
1.6667e-05
1.7018e-05
1.78077e-05
1.87038e-05
1.96326e-05
2.04119e-05
1.95044e-05
1.8713e-05
1.782e-05
1.74487e-05
1.74499e-05
1.78176e-05
1.87009e-05
1.94739e-05
2.04097e-05
2.09563e-05
2.03188e-05
1.95372e-05
1.86926e-05
1.83905e-05
1.84011e-05
1.87198e-05
1.9551e-05
2.0308e-05
2.10098e-05
2.2375e-05
2.11228e-05
2.04747e-05
1.96377e-05
1.93524e-05
1.93682e-05
1.96657e-05
2.04689e-05
2.1079e-05
2.23897e-05
2.19506e-05
2.04092e-05
1.98219e-05
1.95204e-05
1.97021e-05
1.98498e-05
2.00202e-05
2.05533e-05
2.10182e-05
2.20723e-05
2.07017e-05
1.97881e-05
1.94175e-05
1.91399e-05
1.89591e-05
1.90086e-05
1.93033e-05
1.9962e-05
2.05591e-05
2.12268e-05
1.99522e-05
1.95041e-05
1.92092e-05
1.85047e-05
1.80256e-05
1.80648e-05
1.84469e-05
1.9186e-05
1.97914e-05
2.05746e-05
1.95416e-05
1.91397e-05
1.85027e-05
1.76694e-05
1.72564e-05
1.73121e-05
1.76582e-05
1.83469e-05
1.91176e-05
1.98627e-05
1.96601e-05
1.89453e-05
1.80133e-05
1.72623e-05
1.69523e-05
1.69645e-05
1.72911e-05
1.80002e-05
1.88325e-05
1.96003e-05
1.9722e-05
1.89303e-05
1.80335e-05
1.7304e-05
1.6975e-05
1.6967e-05
1.72714e-05
1.79903e-05
1.88485e-05
1.96115e-05
1.99017e-05
1.91991e-05
1.83767e-05
1.7646e-05
1.73107e-05
1.72913e-05
1.76067e-05
1.83295e-05
1.9151e-05
1.98754e-05
2.05199e-05
1.98432e-05
1.91468e-05
1.83523e-05
1.80174e-05
1.80154e-05
1.83474e-05
1.91401e-05
1.98225e-05
2.0512e-05
2.10159e-05
2.05585e-05
1.98603e-05
1.9133e-05
1.88489e-05
1.88618e-05
1.91732e-05
1.99065e-05
2.05726e-05
2.10548e-05
2.19383e-05
2.11183e-05
2.05167e-05
1.98451e-05
1.96058e-05
1.96295e-05
1.99103e-05
2.05798e-05
2.11394e-05
2.19769e-05
2.1522e-05
2.02095e-05
1.98325e-05
1.96983e-05
1.98082e-05
1.98512e-05
2.00178e-05
2.04875e-05
2.08311e-05
2.15591e-05
2.05131e-05
1.97946e-05
1.95837e-05
1.93527e-05
1.91533e-05
1.92042e-05
1.95047e-05
2.00979e-05
2.05246e-05
2.09316e-05
1.9966e-05
1.96669e-05
1.93577e-05
1.86581e-05
1.82504e-05
1.83524e-05
1.87247e-05
1.93856e-05
1.98739e-05
2.03915e-05
1.97079e-05
1.93421e-05
1.86578e-05
1.78699e-05
1.75376e-05
1.76462e-05
1.79875e-05
1.86156e-05
1.93027e-05
1.98527e-05
1.97308e-05
1.91e-05
1.82245e-05
1.75433e-05
1.72849e-05
1.73217e-05
1.76313e-05
1.82867e-05
1.90365e-05
1.96417e-05
1.96937e-05
1.90727e-05
1.82847e-05
1.76269e-05
1.73296e-05
1.73279e-05
1.76091e-05
1.8274e-05
1.90536e-05
1.96617e-05
1.98732e-05
1.93501e-05
1.86159e-05
1.79573e-05
1.76447e-05
1.7628e-05
1.79259e-05
1.85903e-05
1.93456e-05
1.99095e-05
2.04262e-05
1.99424e-05
1.93242e-05
1.86093e-05
1.82993e-05
1.82993e-05
1.86125e-05
1.93346e-05
1.99385e-05
2.04268e-05
2.08477e-05
2.05459e-05
1.99619e-05
1.93241e-05
1.90523e-05
1.90665e-05
1.9373e-05
2.003e-05
2.05733e-05
2.08649e-05
2.14712e-05
2.09028e-05
2.0396e-05
1.98577e-05
1.96458e-05
1.96749e-05
1.99484e-05
2.05122e-05
2.09741e-05
2.15188e-05
2.08733e-05
1.9758e-05
1.96087e-05
1.96079e-05
1.96599e-05
1.96339e-05
1.98146e-05
2.02595e-05
2.0476e-05
2.09459e-05
1.99751e-05
1.95215e-05
1.94862e-05
1.93143e-05
1.91216e-05
1.91543e-05
1.94391e-05
1.99972e-05
2.02894e-05
2.04159e-05
1.9642e-05
1.95283e-05
1.92666e-05
1.86188e-05
1.82772e-05
1.83993e-05
1.87355e-05
1.93352e-05
1.97432e-05
2.00278e-05
1.95241e-05
1.92474e-05
1.85984e-05
1.78907e-05
1.76208e-05
1.77465e-05
1.80648e-05
1.86346e-05
1.92512e-05
1.96401e-05
1.95096e-05
1.89921e-05
1.82105e-05
1.76106e-05
1.73918e-05
1.74408e-05
1.77297e-05
1.83306e-05
1.90071e-05
1.94704e-05
1.94524e-05
1.89713e-05
1.82815e-05
1.76971e-05
1.74336e-05
1.74438e-05
1.77099e-05
1.83219e-05
1.90262e-05
1.94955e-05
1.96575e-05
1.92589e-05
1.85972e-05
1.80062e-05
1.77216e-05
1.77184e-05
1.80095e-05
1.86195e-05
1.93054e-05
1.97315e-05
2.0159e-05
1.98219e-05
1.92649e-05
1.86151e-05
1.83275e-05
1.83352e-05
1.86392e-05
1.9302e-05
1.9836e-05
2.01529e-05
2.04795e-05
2.03227e-05
1.98488e-05
1.92776e-05
1.90166e-05
1.90295e-05
1.93263e-05
1.99227e-05
2.03508e-05
2.04601e-05
2.0932e-05
2.0488e-05
2.0102e-05
1.96694e-05
1.9472e-05
1.94969e-05
1.9757e-05
2.02296e-05
2.05727e-05
2.0954e-05
2.01967e-05
1.92127e-05
1.92429e-05
1.93375e-05
1.93613e-05
1.93089e-05
1.95101e-05
1.99511e-05
2.00723e-05
2.04016e-05
1.92982e-05
1.91758e-05
1.93086e-05
1.91909e-05
1.89909e-05
1.89751e-05
1.92258e-05
1.97694e-05
1.99836e-05
1.98457e-05
1.91413e-05
1.93012e-05
1.91388e-05
1.855e-05
1.82296e-05
1.83162e-05
1.85921e-05
1.91471e-05
1.95126e-05
1.95952e-05
1.9149e-05
1.90662e-05
1.85062e-05
1.78721e-05
1.76205e-05
1.77172e-05
1.79938e-05
1.85134e-05
1.90747e-05
1.93206e-05
1.9158e-05
1.88057e-05
1.81283e-05
1.75917e-05
1.73851e-05
1.74256e-05
1.76868e-05
1.82374e-05
1.88492e-05
1.91756e-05
1.91405e-05
1.87884e-05
1.81716e-05
1.76394e-05
1.73979e-05
1.74165e-05
1.76721e-05
1.8236e-05
1.88678e-05
1.92015e-05
1.93703e-05
1.90659e-05
1.84567e-05
1.79126e-05
1.76501e-05
1.76631e-05
1.79543e-05
1.85178e-05
1.91329e-05
1.94294e-05
1.98087e-05
1.95894e-05
1.90835e-05
1.84827e-05
1.82104e-05
1.82258e-05
1.85277e-05
1.91414e-05
1.96119e-05
1.97785e-05
2.00139e-05
1.99907e-05
1.96144e-05
1.90946e-05
1.88414e-05
1.885e-05
1.91351e-05
1.96837e-05
2.00215e-05
1.99676e-05
2.04218e-05
1.99644e-05
1.9702e-05
1.93558e-05
1.91661e-05
1.91783e-05
1.9417e-05
1.98139e-05
2.00539e-05
2.04236e-05
1.98102e-05
1.87582e-05
1.88598e-05
1.89768e-05
1.89632e-05
1.88961e-05
1.90996e-05
1.95365e-05
1.96188e-05
2.00672e-05
1.86864e-05
1.88499e-05
1.90959e-05
1.89924e-05
1.87549e-05
1.86775e-05
1.88841e-05
1.94106e-05
1.95802e-05
1.92645e-05
1.8631e-05
1.90481e-05
1.89725e-05
1.84232e-05
1.80867e-05
1.8111e-05
1.83266e-05
1.88478e-05
1.91837e-05
1.91087e-05
1.87186e-05
1.88408e-05
1.83725e-05
1.77906e-05
1.75265e-05
1.7573e-05
1.78065e-05
1.82879e-05
1.87973e-05
1.89139e-05
1.87603e-05
1.85763e-05
1.79903e-05
1.74934e-05
1.72801e-05
1.73019e-05
1.75352e-05
1.80429e-05
1.85924e-05
1.87831e-05
1.87915e-05
1.85568e-05
1.79963e-05
1.74965e-05
1.72642e-05
1.72844e-05
1.75308e-05
1.80518e-05
1.86103e-05
1.88085e-05
1.90213e-05
1.88057e-05
1.82484e-05
1.77381e-05
1.74867e-05
1.75098e-05
1.77995e-05
1.83198e-05
1.88606e-05
1.90296e-05
1.93801e-05
1.92713e-05
1.88269e-05
1.82722e-05
1.80084e-05
1.80246e-05
1.83199e-05
1.88854e-05
1.92895e-05
1.93265e-05
1.94807e-05
1.95723e-05
1.92926e-05
1.88268e-05
1.85822e-05
1.85807e-05
1.88439e-05
1.93408e-05
1.96022e-05
1.94366e-05
2.00647e-05
1.93972e-05
1.92305e-05
1.89586e-05
1.87755e-05
1.87689e-05
1.89731e-05
1.93028e-05
1.94783e-05
2.0068e-05
1.97746e-05
1.84282e-05
1.85146e-05
1.85691e-05
1.8495e-05
1.84148e-05
1.86064e-05
1.90336e-05
1.91589e-05
2.00059e-05
1.82693e-05
1.86419e-05
1.88928e-05
1.87333e-05
1.84505e-05
1.83347e-05
1.85127e-05
1.90189e-05
1.91694e-05
1.87473e-05
1.82465e-05
1.88665e-05
1.87901e-05
1.82372e-05
1.78815e-05
1.78654e-05
1.80504e-05
1.85506e-05
1.88624e-05
1.86388e-05
1.83548e-05
1.86431e-05
1.82167e-05
1.76565e-05
1.73766e-05
1.73889e-05
1.7601e-05
1.80618e-05
1.85245e-05
1.85e-05
1.83937e-05
1.83691e-05
1.78442e-05
1.73628e-05
1.7138e-05
1.7145e-05
1.73607e-05
1.78385e-05
1.83319e-05
1.83785e-05
1.84457e-05
1.83437e-05
1.78352e-05
1.73502e-05
1.71153e-05
1.71305e-05
1.73665e-05
1.78515e-05
1.83422e-05
1.84024e-05
1.86543e-05
1.85574e-05
1.8066e-05
1.75813e-05
1.73276e-05
1.73472e-05
1.76281e-05
1.8107e-05
1.8572e-05
1.86125e-05
1.89386e-05
1.89539e-05
1.85938e-05
1.80843e-05
1.782e-05
1.78256e-05
1.8105e-05
1.86178e-05
1.89503e-05
1.88706e-05
1.90013e-05
1.91615e-05
1.89815e-05
1.85702e-05
1.83322e-05
1.83154e-05
1.85474e-05
1.89869e-05
1.91789e-05
1.8963e-05
1.99898e-05
1.88715e-05
1.8761e-05
1.85562e-05
1.83845e-05
1.83578e-05
1.85188e-05
1.87857e-05
1.89502e-05
2.00143e-05
2.01603e-05
1.83648e-05
1.83039e-05
1.82131e-05
1.80226e-05
1.78933e-05
1.80475e-05
1.84631e-05
1.87423e-05
2.02163e-05
1.81589e-05
1.85604e-05
1.86853e-05
1.83926e-05
1.80563e-05
1.79294e-05
1.80951e-05
1.85735e-05
1.87168e-05
1.83603e-05
1.80811e-05
1.87259e-05
1.85195e-05
1.79139e-05
1.75534e-05
1.75377e-05
1.77317e-05
1.8222e-05
1.85073e-05
1.8196e-05
1.81135e-05
1.84173e-05
1.79529e-05
1.73871e-05
1.71058e-05
1.71182e-05
1.73399e-05
1.7797e-05
1.82155e-05
1.80714e-05
1.80576e-05
1.81178e-05
1.76136e-05
1.7132e-05
1.69011e-05
1.69066e-05
1.71205e-05
1.75829e-05
1.80276e-05
1.79447e-05
1.80634e-05
1.80856e-05
1.76245e-05
1.71472e-05
1.69027e-05
1.69082e-05
1.71354e-05
1.75938e-05
1.80255e-05
1.79611e-05
1.82219e-05
1.82693e-05
1.78582e-05
1.73946e-05
1.71272e-05
1.71316e-05
1.73972e-05
1.78388e-05
1.82325e-05
1.81558e-05
1.84576e-05
1.86004e-05
1.83384e-05
1.78729e-05
1.76006e-05
1.75875e-05
1.78437e-05
1.83047e-05
1.85632e-05
1.83964e-05
1.86031e-05
1.87414e-05
1.8649e-05
1.82867e-05
1.80534e-05
1.80199e-05
1.82172e-05
1.85981e-05
1.87273e-05
1.8574e-05
2.01783e-05
1.8478e-05
1.83139e-05
1.81383e-05
1.79721e-05
1.79298e-05
1.80547e-05
1.8284e-05
1.85286e-05
2.02149e-05
2.02648e-05
1.85014e-05
1.81671e-05
1.78812e-05
1.75601e-05
1.73792e-05
1.74968e-05
1.79089e-05
1.84642e-05
2.01329e-05
1.83082e-05
1.8553e-05
1.84577e-05
1.8008e-05
1.7641e-05
1.75351e-05
1.77051e-05
1.81482e-05
1.82975e-05
1.81731e-05
1.80725e-05
1.85963e-05
1.81867e-05
1.75167e-05
1.71833e-05
1.72109e-05
1.74413e-05
1.79231e-05
1.81781e-05
1.78293e-05
1.79469e-05
1.81574e-05
1.76098e-05
1.70352e-05
1.67846e-05
1.68362e-05
1.70886e-05
1.75466e-05
1.79213e-05
1.76726e-05
1.7729e-05
1.78213e-05
1.73178e-05
1.68418e-05
1.66286e-05
1.6653e-05
1.68773e-05
1.73302e-05
1.7729e-05
1.7529e-05
1.76417e-05
1.77828e-05
1.73768e-05
1.69165e-05
1.66741e-05
1.66763e-05
1.68953e-05
1.73321e-05
1.77118e-05
1.75357e-05
1.77474e-05
1.79482e-05
1.76328e-05
1.7199e-05
1.69245e-05
1.69116e-05
1.71586e-05
1.75664e-05
1.78939e-05
1.77142e-05
1.79892e-05
1.82303e-05
1.80747e-05
1.76571e-05
1.73827e-05
1.73521e-05
1.7583e-05
1.79945e-05
1.81821e-05
1.79648e-05
1.83829e-05
1.83461e-05
1.83181e-05
1.79988e-05
1.7775e-05
1.77311e-05
1.78977e-05
1.82265e-05
1.83089e-05
1.83593e-05
2.01198e-05
1.82862e-05
1.79276e-05
1.77371e-05
1.7573e-05
1.75239e-05
1.76283e-05
1.78535e-05
1.82991e-05
2.01386e-05
1.85863e-05
1.89328e-05
1.81476e-05
1.76174e-05
1.71584e-05
1.69271e-05
1.70224e-05
1.7466e-05
1.84155e-05
1.81765e-05
1.88226e-05
1.86081e-05
1.82138e-05
1.76179e-05
1.72376e-05
1.71637e-05
1.73425e-05
1.77481e-05
1.79277e-05
1.82564e-05
1.82271e-05
1.84359e-05
1.78129e-05
1.70943e-05
1.67994e-05
1.6877e-05
1.71461e-05
1.76157e-05
1.78447e-05
1.75706e-05
1.78095e-05
1.78398e-05
1.72136e-05
1.66392e-05
1.64303e-05
1.65287e-05
1.68099e-05
1.72633e-05
1.75986e-05
1.7304e-05
1.73761e-05
1.74602e-05
1.69576e-05
1.64971e-05
1.63143e-05
1.63627e-05
1.65964e-05
1.70384e-05
1.73972e-05
1.71207e-05
1.71788e-05
1.74112e-05
1.70596e-05
1.66269e-05
1.6398e-05
1.64017e-05
1.66126e-05
1.70316e-05
1.73703e-05
1.71164e-05
1.72529e-05
1.75659e-05
1.73375e-05
1.69396e-05
1.66693e-05
1.66451e-05
1.68755e-05
1.72586e-05
1.75352e-05
1.72908e-05
1.75715e-05
1.78236e-05
1.77516e-05
1.73781e-05
1.71115e-05
1.7073e-05
1.72862e-05
1.76624e-05
1.7796e-05
1.7603e-05
1.83735e-05
1.79709e-05
1.79545e-05
1.76608e-05
1.74509e-05
1.74099e-05
1.75627e-05
1.78604e-05
1.79346e-05
1.83626e-05
1.81844e-05
1.8336e-05
1.76166e-05
1.73405e-05
1.71649e-05
1.7125e-05
1.72446e-05
1.75335e-05
1.83208e-05
1.81804e-05
1.38557e-05
1.93927e-05
1.81019e-05
1.73169e-05
1.67661e-05
1.65325e-05
1.66513e-05
1.71817e-05
1.85017e-05
1.33635e-05
1.93957e-05
1.85476e-05
1.78595e-05
1.71802e-05
1.68242e-05
1.67968e-05
1.69924e-05
1.73659e-05
1.76086e-05
1.84774e-05
1.83292e-05
1.8116e-05
1.7367e-05
1.66572e-05
1.64155e-05
1.65363e-05
1.68313e-05
1.728e-05
1.74858e-05
1.74128e-05
1.75598e-05
1.74025e-05
1.67671e-05
1.62315e-05
1.60741e-05
1.62096e-05
1.65005e-05
1.69339e-05
1.72302e-05
1.69606e-05
1.69546e-05
1.70129e-05
1.6545e-05
1.61267e-05
1.59859e-05
1.60548e-05
1.62858e-05
1.67064e-05
1.7026e-05
1.67241e-05
1.6703e-05
1.69733e-05
1.6677e-05
1.62889e-05
1.60897e-05
1.61003e-05
1.63001e-05
1.6699e-05
1.70026e-05
1.67154e-05
1.67989e-05
1.7133e-05
1.69678e-05
1.6612e-05
1.63641e-05
1.63402e-05
1.65579e-05
1.6922e-05
1.71602e-05
1.69078e-05
1.72689e-05
1.73921e-05
1.73648e-05
1.70279e-05
1.67825e-05
1.67501e-05
1.69546e-05
1.73077e-05
1.74066e-05
1.73452e-05
1.84883e-05
1.76282e-05
1.75548e-05
1.72694e-05
1.70775e-05
1.70512e-05
1.72038e-05
1.74891e-05
1.76085e-05
1.84892e-05
1.34179e-05
1.85147e-05
1.73998e-05
1.69651e-05
1.6762e-05
1.67409e-05
1.69069e-05
1.7331e-05
1.84768e-05
1.34303e-05
2.98871e-05
1.9381e-05
1.79841e-05
1.6974e-05
1.6403e-05
1.62325e-05
1.64364e-05
1.71114e-05
1.83398e-05
3.04444e-05
1.95258e-05
1.83535e-05
1.74239e-05
1.67317e-05
1.64271e-05
1.6455e-05
1.66794e-05
1.70406e-05
1.7392e-05
1.8422e-05
1.82975e-05
1.76692e-05
1.69094e-05
1.62598e-05
1.60702e-05
1.62138e-05
1.65151e-05
1.69387e-05
1.71324e-05
1.73731e-05
1.71884e-05
1.69003e-05
1.63357e-05
1.58728e-05
1.576e-05
1.59046e-05
1.61781e-05
1.65793e-05
1.68442e-05
1.668e-05
1.65097e-05
1.65373e-05
1.61402e-05
1.57846e-05
1.56822e-05
1.57533e-05
1.59633e-05
1.63538e-05
1.66419e-05
1.63788e-05
1.62899e-05
1.6528e-05
1.62806e-05
1.59429e-05
1.57771e-05
1.57923e-05
1.59763e-05
1.63538e-05
1.6631e-05
1.63709e-05
1.64687e-05
1.67045e-05
1.65663e-05
1.62464e-05
1.60297e-05
1.6015e-05
1.62257e-05
1.65772e-05
1.67898e-05
1.66058e-05
1.71406e-05
1.69804e-05
1.695e-05
1.66339e-05
1.64154e-05
1.64005e-05
1.66081e-05
1.69501e-05
1.70378e-05
1.72225e-05
1.83282e-05
1.73531e-05
1.71473e-05
1.68498e-05
1.66752e-05
1.66721e-05
1.68386e-05
1.71347e-05
1.73655e-05
1.83305e-05
3.04649e-05
1.83846e-05
1.729e-05
1.66439e-05
1.6395e-05
1.63977e-05
1.66398e-05
1.72629e-05
1.83538e-05
3.05613e-05
9.30453e-05
1.79619e-05
1.78024e-05
1.66318e-05
1.60796e-05
1.60155e-05
1.63493e-05
1.7159e-05
1.69089e-05
9.41088e-05
1.82075e-05
1.80176e-05
1.69219e-05
1.62701e-05
1.60246e-05
1.61045e-05
1.63596e-05
1.67285e-05
1.72151e-05
1.7078e-05
1.81028e-05
1.71142e-05
1.64422e-05
1.58921e-05
1.57433e-05
1.58849e-05
1.61723e-05
1.65646e-05
1.67554e-05
1.73598e-05
1.67636e-05
1.63656e-05
1.59325e-05
1.55636e-05
1.54778e-05
1.55987e-05
1.58307e-05
1.61905e-05
1.64269e-05
1.64584e-05
1.61019e-05
1.60667e-05
1.57657e-05
1.54806e-05
1.54e-05
1.54492e-05
1.56215e-05
1.59757e-05
1.62373e-05
1.609e-05
1.59752e-05
1.61023e-05
1.58977e-05
1.56057e-05
1.54637e-05
1.54733e-05
1.56362e-05
1.59894e-05
1.62438e-05
1.60848e-05
1.62688e-05
1.62953e-05
1.61593e-05
1.5864e-05
1.56738e-05
1.56702e-05
1.58748e-05
1.62129e-05
1.6407e-05
1.63807e-05
1.71075e-05
1.65914e-05
1.65215e-05
1.62147e-05
1.60204e-05
1.60252e-05
1.62373e-05
1.65716e-05
1.66707e-05
1.71619e-05
1.68733e-05
1.71252e-05
1.67391e-05
1.6415e-05
1.62541e-05
1.62703e-05
1.64513e-05
1.67723e-05
1.71615e-05
1.68811e-05
9.40566e-05
1.6949e-05
1.72282e-05
1.63968e-05
1.60867e-05
1.61085e-05
1.64382e-05
1.7244e-05
1.69354e-05
9.41797e-05
0.000219143
1.4452e-05
1.74112e-05
1.6331e-05
1.583e-05
1.58855e-05
1.63538e-05
1.70883e-05
1.3875e-05
0.000220415
1.48351e-05
1.76298e-05
1.64667e-05
1.58686e-05
1.56801e-05
1.58016e-05
1.60828e-05
1.64847e-05
1.70749e-05
1.41262e-05
1.767e-05
1.66166e-05
1.60533e-05
1.56136e-05
1.54908e-05
1.56103e-05
1.58681e-05
1.62263e-05
1.64416e-05
1.71943e-05
1.6411e-05
1.59238e-05
1.5634e-05
1.53534e-05
1.52687e-05
1.53398e-05
1.55174e-05
1.58364e-05
1.60587e-05
1.63264e-05
1.5833e-05
1.57076e-05
1.54979e-05
1.52656e-05
1.51785e-05
1.51823e-05
1.53085e-05
1.56293e-05
1.58775e-05
1.59089e-05
1.58216e-05
1.57856e-05
1.56099e-05
1.53392e-05
1.51965e-05
1.5185e-05
1.53214e-05
1.56507e-05
1.58921e-05
1.59026e-05
1.62235e-05
1.59849e-05
1.58296e-05
1.55407e-05
1.53569e-05
1.5354e-05
1.55481e-05
1.58702e-05
1.60556e-05
1.62504e-05
1.69935e-05
1.63073e-05
1.61613e-05
1.58504e-05
1.56659e-05
1.5679e-05
1.58896e-05
1.62129e-05
1.63567e-05
1.698e-05
1.38674e-05
1.69582e-05
1.64188e-05
1.6043e-05
1.58811e-05
1.59036e-05
1.60929e-05
1.64589e-05
1.69838e-05
1.38349e-05
0.000220326
1.39045e-05
1.70407e-05
1.62557e-05
1.58879e-05
1.59159e-05
1.63149e-05
1.70823e-05
1.39125e-05
0.000220395
0.000430086
2.01895e-05
1.6415e-05
1.60712e-05
1.56491e-05
1.57776e-05
1.62827e-05
1.6323e-05
2.09032e-05
0.000430963
2.05994e-05
1.70798e-05
1.60953e-05
1.5511e-05
1.53539e-05
1.5495e-05
1.57926e-05
1.62561e-05
1.6734e-05
2.10846e-05
1.6611e-05
1.621e-05
1.56985e-05
1.53501e-05
1.52349e-05
1.53199e-05
1.55467e-05
1.5879e-05
1.61577e-05
1.63629e-05
1.61128e-05
1.55588e-05
1.53782e-05
1.51588e-05
1.50469e-05
1.50566e-05
1.5188e-05
1.548e-05
1.57084e-05
1.61688e-05
1.56706e-05
1.54192e-05
1.52748e-05
1.50624e-05
1.49367e-05
1.48839e-05
1.49736e-05
1.52761e-05
1.5528e-05
1.57694e-05
1.57447e-05
1.55235e-05
1.53594e-05
1.50828e-05
1.491e-05
1.48653e-05
1.49812e-05
1.52959e-05
1.55388e-05
1.57505e-05
1.616e-05
1.57196e-05
1.55327e-05
1.52297e-05
1.50279e-05
1.50134e-05
1.51959e-05
1.55046e-05
1.5701e-05
1.60763e-05
1.62249e-05
1.60899e-05
1.58314e-05
1.55026e-05
1.53082e-05
1.53158e-05
1.55179e-05
1.58353e-05
1.60674e-05
1.61249e-05
2.09025e-05
1.66413e-05
1.6166e-05
1.57052e-05
1.55224e-05
1.55352e-05
1.57298e-05
1.61663e-05
1.66142e-05
2.08442e-05
0.000430894
2.09847e-05
1.62287e-05
1.61099e-05
1.57361e-05
1.57527e-05
1.61398e-05
1.6237e-05
2.09337e-05
0.000430812
0.000737898
5.40682e-05
1.41301e-05
1.55656e-05
1.54214e-05
1.55858e-05
1.58919e-05
1.43347e-05
5.5193e-05
0.000737735
5.44488e-05
1.60595e-05
1.58778e-05
1.52679e-05
1.51183e-05
1.52564e-05
1.55602e-05
1.60969e-05
1.59147e-05
5.52122e-05
1.43192e-05
1.59864e-05
1.54567e-05
1.51607e-05
1.50402e-05
1.50876e-05
1.52836e-05
1.55992e-05
1.59799e-05
1.4395e-05
1.56243e-05
1.53359e-05
1.52042e-05
1.50116e-05
1.48585e-05
1.4813e-05
1.49126e-05
1.51892e-05
1.54515e-05
1.57771e-05
1.55007e-05
1.52326e-05
1.51145e-05
1.48933e-05
1.47148e-05
1.46112e-05
1.46811e-05
1.49785e-05
1.52532e-05
1.55962e-05
1.56129e-05
1.53292e-05
1.51602e-05
1.48606e-05
1.46457e-05
1.45697e-05
1.46743e-05
1.49837e-05
1.52476e-05
1.55595e-05
1.5806e-05
1.55121e-05
1.52846e-05
1.49619e-05
1.47344e-05
1.47031e-05
1.48763e-05
1.51772e-05
1.5414e-05
1.56584e-05
1.42584e-05
1.59435e-05
1.55593e-05
1.52079e-05
1.49967e-05
1.49919e-05
1.51865e-05
1.5508e-05
1.58721e-05
1.41221e-05
5.50899e-05
1.58379e-05
1.60033e-05
1.54428e-05
1.52268e-05
1.52272e-05
1.54361e-05
1.59697e-05
1.57857e-05
5.50967e-05
0.000737601
5.52491e-05
1.42819e-05
1.57226e-05
1.5544e-05
1.55429e-05
1.57128e-05
1.42385e-05
5.52171e-05
0.000737511
0.0011402
0.000123311
1.35769e-05
1.45221e-05
1.4942e-05
1.50694e-05
1.47834e-05
1.39926e-05
0.000124094
0.00113749
0.000123776
1.4279e-05
1.57953e-05
1.51458e-05
1.49533e-05
1.50506e-05
1.53411e-05
1.59195e-05
1.42634e-05
0.000123991
1.37571e-05
1.58854e-05
1.52981e-05
1.49905e-05
1.48342e-05
1.48349e-05
1.50058e-05
1.53217e-05
1.57928e-05
1.41163e-05
1.45596e-05
1.5202e-05
1.50366e-05
1.4824e-05
1.46137e-05
1.45249e-05
1.4616e-05
1.48908e-05
1.52061e-05
1.46876e-05
1.50108e-05
1.50617e-05
1.49121e-05
1.46538e-05
1.4417e-05
1.42825e-05
1.43588e-05
1.46653e-05
1.49758e-05
1.50371e-05
1.50789e-05
1.51066e-05
1.49002e-05
1.45685e-05
1.43119e-05
1.42193e-05
1.43338e-05
1.46502e-05
1.49515e-05
1.49797e-05
1.467e-05
1.52747e-05
1.49863e-05
1.46412e-05
1.43903e-05
1.43515e-05
1.45269e-05
1.48317e-05
1.51394e-05
1.4526e-05
1.38852e-05
1.57558e-05
1.5264e-05
1.48793e-05
1.4653e-05
1.4642e-05
1.48394e-05
1.5191e-05
1.56804e-05
1.38292e-05
0.000123921
1.41899e-05
1.58137e-05
1.51781e-05
1.49253e-05
1.49211e-05
1.51635e-05
1.57809e-05
1.41449e-05
0.000123916
0.00113738
0.000124171
1.40459e-05
1.46183e-05
1.49661e-05
1.49575e-05
1.45918e-05
1.39562e-05
0.000124092
0.00113716
0.00161887
0.000239541
2.7559e-05
1.30775e-05
1.38513e-05
1.39204e-05
1.32287e-05
2.79749e-05
0.000239773
0.00161356
0.00024021
1.28713e-05
1.56875e-05
1.5105e-05
1.48602e-05
1.49056e-05
1.51706e-05
1.56671e-05
1.31136e-05
0.000239554
2.77685e-05
1.57647e-05
1.52323e-05
1.48674e-05
1.46675e-05
1.46259e-05
1.47733e-05
1.5103e-05
1.55315e-05
2.80054e-05
1.31082e-05
1.51375e-05
1.48963e-05
1.46399e-05
1.4381e-05
1.42695e-05
1.43628e-05
1.46332e-05
1.49976e-05
1.31227e-05
1.38957e-05
1.4922e-05
1.47043e-05
1.44023e-05
1.41245e-05
1.39848e-05
1.40819e-05
1.43939e-05