/*--------------------------------*- C++ -*----------------------------------*\
| =========                 |                                                 |
| \\      /  F ield         | OpenFOAM: The Open Source CFD Toolbox           |
|  \\    /   O peration     | Version:  2406                                  |
|   \\  /    A nd           | Website:  www.openfoam.com                      |
|    \\/     M anipulation  |                                                 |
\*---------------------------------------------------------------------------*/
FoamFile
{
    version     2.0;
    format      ascii;
    arch        "LSB;label=32;scalar=64";
    class       volVectorField;
    location    "100";
    object      momentError;
}
// * * * * * * * * * * * * * * * * * * * * * * * * * * * * * * * * * * * * * //

dimensions      [0 1 -2 0 0 0 0];

internalField   nonuniform List<vector> 
25000
(
(-0.000469859 -0.000975768 0.000288108)
(-0.000151605 -0.000651867 0.000238112)
(-0.000452444 -0.000429662 0.000173569)
(-0.000451171 -0.000227618 0.000137674)
(-0.000356214 -0.000119426 0.00011642)
(-0.000266607 -5.91822e-05 9.99497e-05)
(-0.000202242 -3.39527e-05 8.6638e-05)
(-0.000154769 -1.40858e-05 7.90536e-05)
(-0.000120918 2.54049e-06 7.50985e-05)
(-9.79959e-05 -3.83293e-06 7.46538e-05)
(-0.000265811 -0.000407998 0.000217006)
(-0.000246055 -0.000582926 0.000194408)
(-0.000277876 -0.000442342 0.000160612)
(-0.000275752 -0.000268152 0.000131929)
(-0.000242617 -0.000146853 0.000111227)
(-0.000200295 -7.79195e-05 9.47725e-05)
(-0.0001639 -4.02374e-05 8.22669e-05)
(-0.000129241 -2.03704e-05 7.55428e-05)
(-0.000104722 -1.09246e-05 7.3376e-05)
(-8.85941e-05 -7.19293e-06 7.45106e-05)
(-0.000201994 -0.000427329 0.000138401)
(-0.000187385 -0.000393715 0.000143496)
(-0.000157184 -0.000304729 0.000132765)
(-0.000158644 -0.000211891 0.000116425)
(-0.000157817 -0.00013334 0.000101083)
(-0.000144797 -8.20101e-05 8.76763e-05)
(-0.000126527 -5.04935e-05 7.73709e-05)
(-0.000107815 -3.22524e-05 7.20665e-05)
(-8.93993e-05 -2.33837e-05 7.06554e-05)
(-7.97715e-05 -1.8149e-05 7.25798e-05)
(-0.000136495 -0.00034892 9.90378e-05)
(-0.000109557 -0.000275527 0.000103962)
(-8.97278e-05 -0.000215701 0.000102684)
(-9.73158e-05 -0.000162006 9.60485e-05)
(-0.000104725 -0.000114568 8.75609e-05)
(-0.000106248 -7.88118e-05 7.88219e-05)
(-0.000101075 -5.48751e-05 7.14538e-05)
(-8.90532e-05 -3.95797e-05 6.77653e-05)
(-7.70934e-05 -3.09328e-05 6.7423e-05)
(-6.94413e-05 -2.56394e-05 6.98559e-05)
(-7.97242e-05 -0.000258239 7.57374e-05)
(-5.76886e-05 -0.000203275 7.71755e-05)
(-4.86336e-05 -0.000162746 7.81997e-05)
(-5.83737e-05 -0.000129165 7.66547e-05)
(-7.26067e-05 -9.8436e-05 7.35839e-05)
(-7.94146e-05 -7.42071e-05 6.92212e-05)
(-7.98069e-05 -5.60703e-05 6.51163e-05)
(-7.62946e-05 -4.35636e-05 6.3463e-05)
(-6.79315e-05 -3.57918e-05 6.42094e-05)
(-6.01142e-05 -3.04214e-05 6.73852e-05)
(-4.33579e-05 -0.000189636 6.11794e-05)
(-2.29748e-05 -0.000154324 5.87392e-05)
(-2.305e-05 -0.000128769 5.91533e-05)
(-3.65776e-05 -0.000107276 6.00623e-05)
(-5.03288e-05 -8.72644e-05 6.02678e-05)
(-6.11611e-05 -6.95978e-05 5.93517e-05)
(-6.63279e-05 -5.65662e-05 5.80286e-05)
(-6.4746e-05 -4.62666e-05 5.83511e-05)
(-6.0245e-05 -3.88964e-05 6.03804e-05)
(-5.34721e-05 -3.4159e-05 6.43037e-05)
(-1.8677e-05 -0.000143561 5.01613e-05)
(-6.26259e-06 -0.000120501 4.6205e-05)
(-9.14039e-06 -0.000105507 4.61889e-05)
(-2.16086e-05 -9.18337e-05 4.74639e-05)
(-3.70884e-05 -7.85413e-05 4.95209e-05)
(-4.80755e-05 -6.64947e-05 5.06331e-05)
(-5.47563e-05 -5.62784e-05 5.14957e-05)
(-5.71259e-05 -4.75512e-05 5.34755e-05)
(-5.49549e-05 -4.14784e-05 5.6716e-05)
(-4.88701e-05 -3.67847e-05 6.1103e-05)
(-2.03595e-06 -0.000110603 4.52602e-05)
(5.47994e-06 -9.45484e-05 4.04681e-05)
(-1.78034e-06 -8.40085e-05 3.96003e-05)
(-1.43968e-05 -7.80444e-05 4.09677e-05)
(-2.74777e-05 -6.93905e-05 4.34351e-05)
(-3.89436e-05 -6.17953e-05 4.57443e-05)
(-4.65022e-05 -5.37848e-05 4.79268e-05)
(-4.93317e-05 -4.71668e-05 5.10104e-05)
(-4.98104e-05 -4.10335e-05 5.496e-05)
(-4.64742e-05 -3.76044e-05 5.97958e-05)
(1.81544e-05 -8.43852e-05 4.37116e-05)
(1.09666e-05 -7.10907e-05 3.97478e-05)
(-1.32801e-07 -6.58046e-05 3.86755e-05)
(-1.15099e-05 -6.2258e-05 3.98109e-05)
(-2.29565e-05 -5.85982e-05 4.22814e-05)
(-3.24182e-05 -5.37594e-05 4.52074e-05)
(-3.93021e-05 -4.84867e-05 4.78162e-05)
(-4.37915e-05 -4.39853e-05 5.14416e-05)
(-4.62056e-05 -4.08583e-05 5.54962e-05)
(-4.88787e-05 -3.84155e-05 5.99608e-05)
(2.37207e-05 -5.93925e-05 4.63789e-05)
(1.37335e-05 -5.75356e-05 4.32904e-05)
(-1.67601e-08 -5.12056e-05 4.23977e-05)
(-1.07817e-05 -4.85941e-05 4.31246e-05)
(-2.02824e-05 -4.66234e-05 4.58442e-05)
(-2.84287e-05 -4.46323e-05 4.88245e-05)
(-3.55138e-05 -4.25336e-05 5.16466e-05)
(-4.03411e-05 -4.18345e-05 5.51213e-05)
(-4.44794e-05 -4.38369e-05 5.84417e-05)
(-4.48019e-05 -3.91843e-05 6.15472e-05)
(-0.0014555 -0.0033543 -0.0027039)
(-0.00069205 -0.00211163 -0.00245745)
(-0.00126755 -0.00108134 -0.00191055)
(-0.00104523 -0.000657898 -0.00143479)
(-0.000821402 -0.000381288 -0.00108824)
(-0.000610385 -0.000294273 -0.000859482)
(-0.000442377 -0.000224234 -0.000709872)
(-0.000292877 -0.000203691 -0.000615609)
(-0.000155692 -0.000166024 -0.000561276)
(-1.55562e-05 -0.00013614 -0.000534179)
(0.000156873 -0.00176496 -0.00208616)
(-0.000152047 -0.00179556 -0.00188265)
(-0.000546832 -0.00115223 -0.0015677)
(-0.000671931 -0.000763665 -0.00125496)
(-0.000629996 -0.000513532 -0.000993851)
(-0.00052082 -0.000380857 -0.000802363)
(-0.000373473 -0.000297706 -0.000669857)
(-0.000244593 -0.0002483 -0.000584732)
(-0.000116955 -0.000215487 -0.00053742)
(-7.12936e-06 -0.000205171 -0.000513846)
(-0.000219814 -0.00125392 -0.00148137)
(0.00018351 -0.00129566 -0.00137127)
(-0.00012957 -0.00108408 -0.0012168)
(-0.000372241 -0.000786526 -0.00103764)
(-0.00043253 -0.000568143 -0.000864091)
(-0.000394368 -0.00040875 -0.000721336)
(-0.000304553 -0.000310869 -0.000616152)
(-0.000197066 -0.000251586 -0.000544929)
(-9.0496e-05 -0.000215249 -0.000503721)
(-1.43795e-06 -0.000201831 -0.000484822)
(-0.000202625 -0.000721719 -0.00107211)
(9.88796e-05 -0.000915619 -0.0010056)
(2.98363e-05 -0.000895712 -0.000930652)
(-0.000131315 -0.000734181 -0.000836307)
(-0.000247934 -0.000557617 -0.000730654)
(-0.000267136 -0.000414195 -0.000634081)
(-0.000221084 -0.00031066 -0.000556263)
(-0.000149172 -0.0002434 -0.000501198)
(-6.65734e-05 -0.000202929 -0.000468925)
(3.16836e-06 -0.000182484 -0.000454315)
(-0.000326247 -0.000474538 -0.000792935)
(4.94874e-05 -0.000608502 -0.000749081)
(8.38803e-05 -0.000664576 -0.000714514)
(-2.04416e-05 -0.000605257 -0.000668274)
(-0.000109827 -0.000499783 -0.000609048)
(-0.000153306 -0.0003854 -0.000548365)
(-0.000142307 -0.000294424 -0.000496629)
(-9.60984e-05 -0.000227137 -0.00045771)
(-3.59662e-05 -0.000179583 -0.000434275)
(1.26043e-05 -0.000151773 -0.000425404)
(-0.000293356 -0.00026823 -0.000614344)
(-6.58539e-05 -0.000379632 -0.000579213)
(5.23846e-05 -0.000455434 -0.000559472)
(4.11829e-05 -0.000457071 -0.000538372)
(-2.68907e-05 -0.000398736 -0.000507842)
(-6.68543e-05 -0.000329956 -0.00047363)
(-7.06625e-05 -0.000256241 -0.000441831)
(-4.20034e-05 -0.000194584 -0.000417914)
(7.99409e-07 -0.000147996 -0.000404836)
(3.22514e-05 -0.000114924 -0.00040168)
(-0.000370767 -0.000138054 -0.000494438)
(-0.000111582 -0.000207473 -0.00046399)
(2.05154e-05 -0.000263044 -0.000451824)
(4.22121e-05 -0.000287662 -0.000442339)
(2.08461e-05 -0.00027152 -0.000428696)
(-1.06437e-05 -0.000232839 -0.000411413)
(-8.71457e-06 -0.000181745 -0.000396093)
(9.44693e-06 -0.000138752 -0.000385066)
(4.0775e-05 -9.858e-05 -0.00038124)
(6.06174e-05 -7.01302e-05 -0.000384132)
(-0.000343356 -3.4379e-05 -0.000414736)
(-0.000166655 -3.75814e-05 -0.000390889)
(-1.7936e-05 -9.03777e-05 -0.000381091)
(3.5893e-05 -9.89232e-05 -0.000377154)
(3.22313e-05 -0.000113886 -0.00037199)
(2.70561e-05 -9.15933e-05 -0.000366343)
(2.7549e-05 -7.60679e-05 -0.000362033)
(4.51439e-05 -5.0169e-05 -0.000361264)
(7.35605e-05 -3.37597e-05 -0.000365425)
(8.50017e-05 -1.88158e-05 -0.000372621)
(-0.000319437 6.73559e-05 -0.000363897)
(-0.000152013 0.00011089 -0.000349956)
(-3.53019e-05 0.000104328 -0.000342951)
(1.74871e-05 7.64277e-05 -0.000340891)
(2.954e-05 6.36106e-05 -0.000340225)
(3.22993e-05 5.55828e-05 -0.000341136)
(4.08935e-05 5.41858e-05 -0.000344705)
(6.19915e-05 5.51623e-05 -0.00035087)
(8.51704e-05 4.65388e-05 -0.000359954)
(0.000108438 4.57695e-05 -0.000368787)
(-0.000159418 0.000170685 -0.000336261)
(-0.000111096 0.000242466 -0.000332456)
(-4.56546e-05 0.000224089 -0.000328397)
(-5.92252e-06 0.000212038 -0.000327946)
(1.25359e-05 0.000186524 -0.000330338)
(2.31278e-05 0.000175647 -0.000335819)
(3.7408e-05 0.000163454 -0.000344151)
(5.1e-05 0.00015025 -0.00035374)
(8.16861e-05 0.000125697 -0.000363653)
(0.000110643 9.91311e-05 -0.000370711)
(0.00134022 0.00161959 -0.00301259)
(0.00242481 0.0014905 -0.0026049)
(0.00286586 0.00106153 -0.00201864)
(0.00222832 0.000482057 -0.00161274)
(0.00150163 0.000222068 -0.00134913)
(0.000983565 4.94908e-05 -0.00117406)
(0.000634893 -4.94816e-06 -0.00105466)
(0.000411636 -7.32298e-05 -0.000986029)
(0.00026706 -0.00010233 -0.000956897)
(0.000290987 -0.000151272 -0.000967304)
(0.00109977 0.00258291 -0.00222241)
(0.00234647 0.00257046 -0.00206382)
(0.00206468 0.0016685 -0.00176432)
(0.00158002 0.000847049 -0.00147619)
(0.00113812 0.000380083 -0.00124857)
(0.000785073 0.000129343 -0.00108308)
(0.00054328 2.64255e-06 -0.00097285)
(0.000353005 -5.62691e-05 -0.000912494)
(0.00023822 -7.47063e-05 -0.000895216)
(0.00025754 -0.000103389 -0.000913634)
(0.000731527 0.00274768 -0.00154766)
(0.0014635 0.002102 -0.00153653)
(0.00125244 0.00132364 -0.00144601)
(0.000997269 0.000768194 -0.00128072)
(0.000791608 0.000392541 -0.00111283)
(0.00059285 0.000179789 -0.000979461)
(0.000428553 5.9443e-05 -0.00088836)
(0.000308861 2.15064e-06 -0.00084039)
(0.000216288 -1.21677e-05 -0.000830148)
(0.000207287 -2.8014e-05 -0.00085447)
(0.000431615 0.00197893 -0.00116653)
(0.000731043 0.00145013 -0.00115736)
(0.000708775 0.000960516 -0.00113153)
(0.000641179 0.000607192 -0.0010559)
(0.000540438 0.000355991 -0.00095651)
(0.000441391 0.000191413 -0.000867387)
(0.000350835 9.4838e-05 -0.000803093)
(0.000262649 4.54741e-05 -0.000770487)
(0.000196226 2.67087e-05 -0.0007693)
(0.000168614 1.74066e-05 -0.000797448)
(0.000166202 0.00130694 -0.000933283)
(0.000356845 0.00100189 -0.000893174)
(0.000394212 0.000708494 -0.000881607)
(0.000386227 0.000482471 -0.000850297)
(0.000373284 0.000309715 -0.000803339)
(0.000329952 0.000194368 -0.000756094)
(0.000278802 0.00011701 -0.000721103)
(0.000234113 7.41144e-05 -0.000706931)
(0.000183731 5.697e-05 -0.00071611)
(0.000138835 4.71076e-05 -0.000749598)
(6.65741e-05 0.000883397 -0.000790795)
(0.000117306 0.000698555 -0.000725839)
(0.000191272 0.000522241 -0.00070164)
(0.000241341 0.000379576 -0.000690456)
(0.000251488 0.000272703 -0.000674311)
(0.000249055 0.000185441 -0.000658326)
(0.000231121 0.000130103 -0.00064819)
(0.000201998 9.44019e-05 -0.000652416)
(0.000169076 7.30861e-05 -0.000673471)
(0.000123648 6.5463e-05 -0.000713588)
(-6.02203e-05 0.000607349 -0.000693561)
(8.81578e-06 0.000494175 -0.000615988)
(8.50131e-05 0.000399354 -0.000587759)
(0.0001378 0.000314544 -0.00057844)
(0.000178397 0.000244867 -0.00057921)
(0.000187692 0.000187031 -0.000581826)
(0.000189352 0.000142633 -0.000591508)
(0.000179134 0.000106501 -0.000611297)
(0.000158667 8.62849e-05 -0.000644284)
(0.000121765 7.40509e-05 -0.000690189)
(-0.00010697 0.00042404 -0.000639121)
(-6.93198e-05 0.000373275 -0.00056198)
(2.52814e-05 0.000311845 -0.000526807)
(8.92237e-05 0.000284679 -0.000519649)
(0.00012351 0.000235063 -0.000525104)
(0.000147 0.000199547 -0.000539408)
(0.000152369 0.000153693 -0.000561045)
(0.000149035 0.000121013 -0.000592057)
(0.000142677 8.86414e-05 -0.000632635)
(0.0001275 7.73694e-05 -0.000682863)
(-0.000170638 0.000305054 -0.000613058)
(-7.93366e-05 0.000293264 -0.0005497)
(1.37195e-05 0.000284019 -0.000517559)
(6.49747e-05 0.000262559 -0.000510099)
(9.21837e-05 0.0002375 -0.000517206)
(0.000105798 0.000201205 -0.000536821)
(0.000111926 0.000161656 -0.000563755)
(0.000117121 0.000127073 -0.000600123)
(0.000120641 9.53893e-05 -0.000642922)
(0.000150448 9.1331e-05 -0.000691415)
(-0.00015702 0.000292191 -0.000625334)
(-6.98753e-05 0.000314075 -0.00057844)
(9.67413e-06 0.000275176 -0.000552208)
(4.58097e-05 0.000250037 -0.000544273)
(6.00822e-05 0.000214798 -0.000553163)
(6.87237e-05 0.000189546 -0.000573705)
(7.78429e-05 0.000166535 -0.000602796)
(8.70811e-05 0.000154368 -0.000638607)
(0.00011565 0.000151104 -0.000676827)
(0.000182553 0.000164785 -0.000718566)
(-0.00046922 0.00013652 -0.0010239)
(0.00241309 0.000804138 -0.000716586)
(0.00261055 0.00066468 -0.000540059)
(0.0016433 0.000402577 -0.000561144)
(0.00099465 0.000367907 -0.000605069)
(0.000653706 0.000338821 -0.000620947)
(0.000371346 0.00032991 -0.000619496)
(0.000121595 0.000292169 -0.000618272)
(-9.58468e-05 0.000271834 -0.000622583)
(-9.7626e-05 0.000183419 -0.000661305)
(0.000223199 0.00283581 -0.000572838)
(0.00182872 0.00235817 -0.000553444)
(0.00182701 0.00118091 -0.000548832)
(0.00140398 0.000599705 -0.000550166)
(0.000981 0.00044786 -0.00054466)
(0.00062828 0.000381542 -0.00053187)
(0.00033769 0.000333625 -0.000521278)
(6.84737e-05 0.000306079 -0.000519737)
(-0.000150616 0.000298232 -0.000533173)
(-0.000208445 0.000262911 -0.000576302)
(0.000311058 0.00275388 -0.000358811)
(0.000727747 0.00218599 -0.000448598)
(0.000945817 0.00136869 -0.000523355)
(0.000991391 0.000851502 -0.000512965)
(0.000810257 0.000567378 -0.000478609)
(0.00053822 0.000418223 -0.000449882)
(0.000273976 0.000336108 -0.000433908)
(4.74026e-05 0.000301845 -0.00043506)
(-0.000159272 0.00030928 -0.00045401)
(-0.000268066 0.000312892 -0.000502099)
(0.000348099 0.0016315 -0.000358065)
(0.000302055 0.00156454 -0.000390928)
(0.000479693 0.00128862 -0.000429533)
(0.000604959 0.000926634 -0.000420359)
(0.000546205 0.000629077 -0.000389978)
(0.000387832 0.000434336 -0.000365035)
(0.000204529 0.000324955 -0.000354141)
(1.67784e-05 0.000276396 -0.000361031)
(-0.000159055 0.000266245 -0.000386839)
(-0.000288008 0.000279957 -0.000438752)
(0.000401099 0.000969843 -0.000377601)
(0.000282704 0.00106687 -0.000339149)
(0.000288528 0.00100747 -0.000334718)
(0.000326224 0.000808602 -0.000318202)
(0.000314517 0.000585788 -0.000297796)
(0.00023034 0.000415543 -0.000285024)
(0.000110257 0.000301031 -0.000284964)
(-2.07414e-05 0.000236374 -0.000301307)
(-0.000163228 0.000213302 -0.00033481)
(-0.000298786 0.000212664 -0.000391031)
(0.000470253 0.000638138 -0.000376939)
(0.000296569 0.000687894 -0.00029985)
(0.000213431 0.0006795 -0.000259524)
(0.000181948 0.000589178 -0.000236875)
(0.000152114 0.000461774 -0.000222634)
(0.000102907 0.000337636 -0.000221041)
(2.58082e-05 0.000243208 -0.000232296)
(-7.17516e-05 0.000179253 -0.000258514)
(-0.000183303 0.000139001 -0.000299164)
(-0.000307235 0.000130605 -0.000359639)
(0.000479385 0.000379587 -0.000362527)
(0.000313896 0.000385279 -0.00026628)
(0.00019285 0.000387482 -0.000212705)
(0.000110835 0.000354715 -0.000182244)
(6.34151e-05 0.000292281 -0.000173135)
(1.2236e-05 0.000217699 -0.000178915)
(-4.66688e-05 0.000148286 -0.000199692)
(-0.000123197 8.73628e-05 -0.000233714)
(-0.000208797 4.93242e-05 -0.000280841)
(-0.000308808 3.31576e-05 -0.000343384)
(0.000474514 0.000154981 -0.000351087)
(0.000307383 0.000135526 -0.000251302)
(0.000192602 0.000130045 -0.000190774)
(9.17069e-05 0.000134464 -0.000161741)
(1.62771e-05 0.000105461 -0.000154565)
(-4.21855e-05 6.76682e-05 -0.000166318)
(-0.000106029 1.44232e-05 -0.000192641)
(-0.000171882 -2.96775e-05 -0.000231145)
(-0.000237178 -6.64518e-05 -0.000280081)
(-0.000306407 -7.27473e-05 -0.000343394)
(0.000417384 -3.8488e-05 -0.000343711)
(0.000298181 -7.48455e-05 -0.000252271)
(0.000205419 -7.44651e-05 -0.000198727)
(9.36101e-05 -6.88178e-05 -0.0001743)
(-1.91228e-06 -7.81925e-05 -0.000170829)
(-8.1858e-05 -0.000104732 -0.000186418)
(-0.000150331 -0.000139761 -0.000213671)
(-0.000212515 -0.00017044 -0.000252578)
(-0.000261679 -0.000191237 -0.000298901)
(-0.00027867 -0.000169375 -0.00035886)
(0.000320334 -0.000123756 -0.00037067)
(0.00027028 -0.000179717 -0.00028798)
(0.000207475 -0.000226116 -0.000244274)
(9.26141e-05 -0.0002406 -0.000224895)
(-2.01922e-05 -0.000257196 -0.000225884)
(-0.000110041 -0.000268072 -0.000241867)
(-0.000182157 -0.000276783 -0.000269122)
(-0.00023494 -0.000278751 -0.000304974)
(-0.000250726 -0.00026055 -0.00034573)
(-0.000201556 -0.000185301 -0.000403332)
(0.000703034 0.00100617 0.000736612)
(0.00121003 0.00102265 0.000939338)
(0.000690165 0.00052561 0.000894466)
(-0.00012058 0.00032063 0.000720079)
(-0.00014943 0.000435909 0.000589337)
(-4.726e-06 0.000500624 0.000518033)
(-2.38679e-05 0.000554334 0.000480777)
(-0.000127056 0.000571065 0.000471883)
(-0.000307547 0.000580471 0.000483924)
(-0.00035138 0.000468934 0.000465618)
(0.000843153 0.00155092 0.00102426)
(0.000336867 0.000744532 0.00102724)
(0.000175056 -6.05175e-05 0.000895621)
(0.000181004 5.19694e-05 0.000753977)
(0.000208916 0.000381545 0.000654629)
(0.000158133 0.000548709 0.00059548)
(3.35589e-05 0.000612413 0.000565799)
(-0.000156301 0.000626994 0.000560436)
(-0.000380167 0.000619306 0.000570587)
(-0.000539537 0.000580091 0.000559722)
(0.000517971 0.00090063 0.000998006)
(-0.000366394 0.000542947 0.000947446)
(-2.79554e-05 0.000384224 0.000840584)
(0.000355622 0.000449184 0.000760781)
(0.000387906 0.000528132 0.000698013)
(0.000246334 0.000567891 0.000655755)
(5.0084e-05 0.000574854 0.000633574)
(-0.000152725 0.000569559 0.00062802)
(-0.000388383 0.000573621 0.000632091)
(-0.000598203 0.000579677 0.000620484)
(0.00044046 5.26702e-05 0.000846342)
(-0.000134922 0.0004369 0.000837829)
(8.76858e-05 0.000718126 0.000800381)
(0.000331629 0.000712417 0.000766426)
(0.000336746 0.000631969 0.000734432)
(0.000207791 0.000555539 0.000708373)
(3.03384e-05 0.000500697 0.000691875)
(-0.000173135 0.000466636 0.000683833)
(-0.00038993 0.000447516 0.000680334)
(-0.000594553 0.000459716 0.000664341)
(0.000548501 3.74279e-05 0.000746425)
(0.000272364 0.000428195 0.000769583)
(0.000241902 0.000683772 0.000769278)
(0.000268639 0.000689373 0.00076714)
(0.000231564 0.000591557 0.000759782)
(0.000115871 0.0004901 0.000748289)
(-3.91379e-05 0.000405231 0.000736353)
(-0.000209531 0.000345893 0.000726008)
(-0.000398702 0.000315348 0.000716273)
(-0.00058553 0.00031141 0.000694253)
(0.000648241 0.000171782 0.000705531)
(0.0004738 0.000353983 0.000736754)
(0.000336794 0.000494948 0.00075407)
(0.000237553 0.000505985 0.000767829)
(0.000137174 0.00044063 0.000774873)
(2.2839e-05 0.00035096 0.000772513)
(-0.000111312 0.000270959 0.000764333)
(-0.000261135 0.000210139 0.000752913)
(-0.000421918 0.000167142 0.000738705)
(-0.000581287 0.000160506 0.000712907)
(0.000675934 0.000149504 0.000688651)
(0.000568534 0.000208583 0.000728501)
(0.000385179 0.000268311 0.000752845)
(0.000211879 0.00026987 0.000772449)
(7.524e-05 0.00022637 0.000783533)
(-5.37188e-05 0.000162766 0.000784986)
(-0.000178515 9.85653e-05 0.000777935)
(-0.000311386 4.29439e-05 0.00076602)
(-0.000445084 1.02312e-05 0.000750652)
(-0.000577052 2.85555e-06 0.000722272)
(0.000690812 4.83516e-05 0.000690057)
(0.000579414 3.55984e-05 0.000735654)
(0.000393845 2.84888e-05 0.00076207)
(0.000193395 2.17923e-05 0.000778589)
(2.80605e-05 -1.69078e-05 0.000787681)
(-0.00010752 -6.02861e-05 0.000787598)
(-0.000233849 -0.000110086 0.00078057)
(-0.000352261 -0.000146201 0.000769916)
(-0.000464303 -0.000167123 0.000754576)
(-0.000573074 -0.000158093 0.000725269)
(0.000661233 -0.000102667 0.000704056)
(0.000549068 -0.000163741 0.000753799)
(0.000371082 -0.000202137 0.000773713)
(0.000165178 -0.000231659 0.000782384)
(-9.46989e-06 -0.000266049 0.000785059)
(-0.000152033 -0.00030332 0.000781639)
(-0.000272941 -0.000337451 0.000774672)
(-0.000380288 -0.000359369 0.000764573)
(-0.000471716 -0.000360317 0.000752667)
(-0.000542126 -0.000318035 0.000720991)
(0.000587923 -0.000253353 0.000691614)
(0.000485122 -0.000378599 0.000750498)
(0.000327062 -0.000465167 0.000765516)
(0.000125811 -0.00049331 0.000767439)
(-4.95855e-05 -0.0005151 0.000764514)
(-0.00018856 -0.000529235 0.000758701)
(-0.000304476 -0.000543647 0.000750575)
(-0.000394942 -0.000553855 0.000740638)
(-0.000449703 -0.000531109 0.000727248)
(-0.000439663 -0.000414725 0.000684033)
(0.00110714 0.00136043 0.00164415)
(-0.000552671 0.000862655 0.00176064)
(-0.00180196 0.000233091 0.0017589)
(-0.00216531 0.000239047 0.00171886)
(-0.00151656 0.000510441 0.00171098)
(-0.000890931 0.000635974 0.00171362)
(-0.000555571 0.000720317 0.00171497)
(-0.000347023 0.000748606 0.00173258)
(-0.000331699 0.000755635 0.00177197)
(-0.000365179 0.00064457 0.00178559)
(0.000689147 -0.000147812 0.00188902)
(-0.00145454 -0.00103693 0.00191447)
(-0.00181059 -0.00112641 0.00189091)
(-0.00144243 -0.000347697 0.00184964)
(-0.000969717 0.000300235 0.00181329)
(-0.000633697 0.000599254 0.00178972)
(-0.000431681 0.000742052 0.001781)
(-0.000339954 0.000782824 0.00179804)
(-0.000392953 0.000761547 0.00184151)
(-0.000557591 0.000724997 0.00187099)
(6.14052e-05 -0.00141555 0.00194552)
(-0.00148231 -0.00137443 0.00196734)
(-0.00122072 -0.000767507 0.00196927)
(-0.000753834 -0.000114512 0.00193838)
(-0.000538765 0.000306974 0.0018844)
(-0.000409918 0.000532401 0.00184253)
(-0.000337902 0.000638387 0.00182631)
(-0.000316672 0.000662304 0.00183884)
(-0.000402242 0.000641723 0.00187439)
(-0.000588514 0.000633301 0.00190684)
(2.70679e-05 -0.00173881 0.0019434)
(-0.000671883 -0.00104667 0.00197067)
(-0.000540812 -0.000321219 0.00198623)
(-0.00036515 6.732e-05 0.00196382)
(-0.000308969 0.000305854 0.00191959)
(-0.000285357 0.000437312 0.00188234)
(-0.000282878 0.000493511 0.00186517)
(-0.000322309 0.000495975 0.001872)
(-0.000419076 0.000462098 0.00189942)
(-0.000571399 0.000447115 0.00192597)
(0.00020345 -0.00106319 0.00196534)
(-3.98827e-05 -0.000574915 0.0019706)
(-0.000104551 -0.000143793 0.00196502)
(-0.000126398 9.81228e-05 0.00195067)
(-0.00016497 0.000238743 0.00192703)
(-0.000215176 0.00031628 0.00190506)
(-0.000269243 0.000340291 0.00189462)
(-0.00033699 0.000329791 0.00190059)
(-0.000439849 0.000300803 0.0019208)
(-0.000557824 0.000283321 0.00193931)
(0.00031247 -0.000500514 0.00198517)
(0.000226683 -0.000279687 0.00196889)
(0.000119923 -6.13761e-05 0.00194838)
(1.4028e-05 6.56817e-05 0.00193454)
(-9.07544e-05 0.000137264 0.00192463)
(-0.000181392 0.000169114 0.0019165)
(-0.000265323 0.000175575 0.00191448)
(-0.000356694 0.000165696 0.00192221)
(-0.000458476 0.0001456 0.00193872)
(-0.000546837 0.000142739 0.00195154)
(0.000359171 -0.000250396 0.00198731)
(0.000367695 -0.000145561 0.00197104)
(0.000225449 -4.64271e-05 0.00194511)
(6.63697e-05 -3.90195e-06 0.00193169)
(-6.35618e-05 9.72175e-06 0.00192646)
(-0.000177456 9.84648e-06 0.00192626)
(-0.000273249 4.62332e-06 0.00192966)
(-0.000367685 -2.73559e-06 0.00193976)
(-0.000462894 -3.07002e-06 0.00195564)
(-0.000536768 1.0791e-05 0.00196332)
(0.000400466 -0.000112497 0.00198903)
(0.000402659 -9.23565e-05 0.00198265)
(0.000245323 -9.59144e-05 0.00196004)
(6.27635e-05 -0.000110791 0.00194418)
(-7.98936e-05 -0.00014505 0.00193954)
(-0.00018911 -0.000163074 0.00194064)
(-0.000282185 -0.000175798 0.00194686)
(-0.000370551 -0.000172098 0.00195937)
(-0.000453367 -0.000155432 0.00197407)
(-0.00052554 -0.000122015 0.00197761)
(0.000405405 -7.68649e-05 0.00200133)
(0.000368497 -0.00013226 0.00200757)
(0.000191128 -0.000197252 0.00198641)
(8.41363e-06 -0.000262519 0.00196832)
(-0.000120216 -0.000315307 0.00196131)
(-0.000212811 -0.00034638 0.0019619)
(-0.000290267 -0.000357918 0.00196882)
(-0.000359933 -0.000350104 0.00198095)
(-0.000430992 -0.000321123 0.00199694)
(-0.000500516 -0.000267845 0.00199249)
(0.000390669 -0.000163236 0.00198748)
(0.000284984 -0.000320554 0.00201407)
(0.000104362 -0.000424941 0.00199994)
(-6.62856e-05 -0.000466991 0.00198435)
(-0.000172222 -0.000496384 0.00197709)
(-0.000240896 -0.000508934 0.00197752)
(-0.000299515 -0.000516759 0.00198347)
(-0.000354184 -0.000517017 0.00199314)
(-0.000400512 -0.000493573 0.0020021)
(-0.000417355 -0.0003825 0.00197789)
(0.0010154 0.00149237 0.00164281)
(-0.00141411 0.000764414 0.00174142)
(-0.00256766 0.000277487 0.00195921)
(-0.00248138 0.000471567 0.00221116)
(-0.00158955 0.000726235 0.00244228)
(-0.000944885 0.000775639 0.00260675)
(-0.000581939 0.000800885 0.00270693)
(-0.000256884 0.000805511 0.00277829)
(-0.000132229 0.000814135 0.0028445)
(-0.000277518 0.000802536 0.00288377)
(0.000258471 -0.000730102 0.00186993)
(-0.00192259 -0.00127234 0.00197461)
(-0.00219043 -0.00085647 0.00218416)
(-0.00175992 6.61312e-05 0.00237899)
(-0.00123732 0.000567579 0.00252701)
(-0.000825119 0.00071601 0.00263527)
(-0.000503412 0.000796188 0.00271357)
(-0.000241867 0.000809733 0.00278339)
(-0.000156133 0.00076775 0.00286026)
(-0.00037229 0.000762007 0.00292187)
(-0.000382899 -0.00191254 0.00212954)
(-0.00151041 -0.00157446 0.00224823)
(-0.00132984 -0.000711619 0.0024223)
(-0.00108381 6.93632e-06 0.00254097)
(-0.000928886 0.000397307 0.00260659)
(-0.000683008 0.000580328 0.00265879)
(-0.00043732 0.000664457 0.00271159)
(-0.00024208 0.000663266 0.00277221)
(-0.000179631 0.000597578 0.00284318)
(-0.000346526 0.000561783 0.0029089)
(-0.000321969 -0.0018425 0.00238385)
(-0.000629743 -0.00118989 0.00246773)
(-0.000612976 -0.000530703 0.0025716)
(-0.000656528 -0.0001173 0.00263038)
(-0.00065493 0.000208686 0.00265756)
(-0.000537509 0.000406294 0.00268319)
(-0.000386967 0.000492955 0.00271825)
(-0.000270582 0.000491286 0.00276733)
(-0.000235484 0.000421827 0.00283018)
(-0.000326989 0.00035921 0.0028894)
(-0.000136318 -0.00100731 0.00259748)
(-0.00018425 -0.000699635 0.00262288)
(-0.000260157 -0.000427828 0.00264928)
(-0.000347547 -0.000180228 0.00267006)
(-0.000401272 6.24098e-05 0.00268393)
(-0.000387414 0.00023686 0.00270153)
(-0.000334255 0.000323792 0.00272994)
(-0.000289861 0.00033681 0.00277232)
(-0.000288532 0.000293173 0.00282678)
(-0.000326087 0.000243795 0.00287691)
(-6.69972e-05 -0.000512581 0.00273016)
(-5.93876e-05 -0.00038968 0.00271802)
(-0.000103746 -0.000260084 0.00270114)
(-0.000171807 -0.000138332 0.00269625)
(-0.000238228 -5.89084e-06 0.00270275)
(-0.00027222 0.000104535 0.00271844)
(-0.000280732 0.000171643 0.00274536)
(-0.000292419 0.000196481 0.00278412)
(-0.000316164 0.00018499 0.00283207)
(-0.000322817 0.000168267 0.00287401)
(-1.59818e-05 -0.000313529 0.00279074)
(4.54323e-05 -0.000203964 0.00277142)
(-2.26169e-05 -0.000121944 0.00273833)
(-0.000100916 -8.1979e-05 0.00272355)
(-0.000161289 -3.98667e-05 0.00272517)
(-0.000210412 5.3444e-06 0.00274106)
(-0.00024315 4.51813e-05 0.00276701)
(-0.000277387 7.2726e-05 0.00280282)
(-0.000316027 8.89391e-05 0.00284586)
(-0.000316231 0.000106411 0.00287848)
(4.17681e-05 -0.000120639 0.00281477)
(0.000101601 -6.18964e-05 0.00280392)
(-8.47733e-07 -4.75568e-05 0.00277347)
(-9.87655e-05 -6.5805e-05 0.00275655)
(-0.000154003 -8.92424e-05 0.00275861)
(-0.000189103 -8.50519e-05 0.00277368)
(-0.000217161 -6.8493e-05 0.00279807)
(-0.000254791 -3.86592e-05 0.00283184)
(-0.000291309 -8.28089e-07 0.00286785)
(-0.000305138 4.17144e-05 0.00289059)
(8.30845e-05 8.81517e-06 0.00282718)
(9.41932e-05 -8.14309e-06 0.00283124)
(-4.86394e-05 -5.15621e-05 0.00280904)
(-0.000153184 -0.00011334 0.00279658)
(-0.000184553 -0.000161212 0.00280137)
(-0.000192731 -0.000177925 0.00281593)
(-0.000202058 -0.000170293 0.00283976)
(-0.000219117 -0.000142889 0.00286778)
(-0.000251284 -9.80738e-05 0.00289982)
(-0.000298404 -5.30666e-05 0.00290965)
(0.000131235 -4.03492e-05 0.00280919)
(4.18956e-05 -0.000155883 0.00283611)
(-0.000122265 -0.000206728 0.0028292)
(-0.00021992 -0.000228024 0.00282763)
(-0.000225204 -0.000245458 0.00283649)
(-0.000204392 -0.000250127 0.00285309)
(-0.000190936 -0.000247872 0.00287394)
(-0.000196682 -0.000239304 0.00289688)
(-0.000223742 -0.000224009 0.00291885)
(-0.000282246 -0.000183099 0.00290764)
(0.000580772 0.00122119 0.00163056)
(-0.00141269 0.000442568 0.00170632)
(-0.00191186 0.000150732 0.00202913)
(-0.00147145 0.000364368 0.00242005)
(-0.000689546 0.000447972 0.00275232)
(-0.000346602 0.000356944 0.002978)
(-0.000203157 0.000313574 0.00310683)
(6.79067e-05 0.000306001 0.0031734)
(0.000241796 0.000327961 0.00321281)
(3.97341e-05 0.000484053 0.00323435)
(-0.000257198 -0.000695269 0.00177352)
(-0.0015034 -0.000794119 0.00189983)
(-0.00141637 -0.0001998 0.00220615)
(-0.00105598 0.000448063 0.00251036)
(-0.000709066 0.000538169 0.00275449)
(-0.000439706 0.00041131 0.0029342)
(-0.000194741 0.000383983 0.0030526)
(8.68262e-05 0.000369433 0.0031286)
(0.000257039 0.000323051 0.00318723)
(3.60955e-05 0.000339733 0.00323065)
(-0.000656566 -0.00135186 0.00207938)
(-0.000920781 -0.000843086 0.00222447)
(-0.000725665 -0.000142491 0.00245336)
(-0.000746249 0.000261844 0.00264213)
(-0.000735265 0.000365625 0.00278719)
(-0.000493657 0.000355098 0.00290882)
(-0.000210302 0.00034208 0.00300458)
(4.82843e-05 0.00029596 0.00307811)
(0.000201314 0.000190797 0.00313942)
(6.77708e-05 0.000109015 0.00318741)
(-0.00045291 -0.00101717 0.00241998)
(-0.000283038 -0.000570221 0.00251761)
(-0.00032682 -0.00026729 0.00264294)
(-0.000556057 -9.22717e-05 0.00274336)
(-0.000615359 0.00011034 0.00282715)
(-0.000453374 0.000224961 0.00290695)
(-0.000227462 0.000256835 0.00297878)
(-2.70117e-05 0.000217297 0.00304333)
(9.13585e-05 0.000109338 0.00310362)
(4.74414e-05 -1.00588e-05 0.00314887)
(-0.000295506 -0.000362344 0.0026916)
(-0.000184083 -0.000314381 0.00273424)
(-0.000255608 -0.000340279 0.00277636)
(-0.000373259 -0.000245193 0.00282101)
(-0.000415367 -5.32826e-05 0.00286729)
(-0.0003381 9.67963e-05 0.00291807)
(-0.00020238 0.000168394 0.00297145)
(-7.7096e-05 0.000164914 0.00302664)
(-5.17909e-06 9.25961e-05 0.00308199)
(8.45067e-06 6.38469e-07 0.00312281)
(-0.000284353 -0.000209475 0.00286063)
(-0.000259818 -0.000216659 0.00287489)
(-0.000261333 -0.000230756 0.00287644)
(-0.000273655 -0.000189535 0.00288676)