/*--------------------------------*- C++ -*----------------------------------*\
| =========                 |                                                 |
| \\      /  F ield         | OpenFOAM: The Open Source CFD Toolbox           |
|  \\    /   O peration     | Version:  2406                                  |
|   \\  /    A nd           | Website:  www.openfoam.com                      |
|    \\/     M anipulation  |                                                 |
\*---------------------------------------------------------------------------*/
FoamFile
{
    version     2.0;
    format      ascii;
    arch        "LSB;label=32;scalar=64";
    class       volScalarField;
    location    "100";
    object      nut;
}
// * * * * * * * * * * * * * * * * * * * * * * * * * * * * * * * * * * * * * //

dimensions      [0 2 -1 0 0 0 0];

internalField   nonuniform List<scalar> 
25000
(
5.88722e-06
5.92859e-06
5.95442e-06
5.96723e-06
5.97283e-06
5.97282e-06
5.96719e-06
5.9545e-06
5.93058e-06
5.88722e-06
5.93066e-06
5.96755e-06
5.98838e-06
5.99991e-06
6.0055e-06
6.00548e-06
5.99998e-06
5.99343e-06
5.96747e-06
5.92852e-06
5.95455e-06
5.99348e-06
6.01095e-06
6.01858e-06
6.02382e-06
6.02382e-06
6.01921e-06
6.0109e-06
5.98832e-06
5.95436e-06
5.96722e-06
6.00002e-06
6.01924e-06
6.03002e-06
6.03451e-06
6.03492e-06
6.02999e-06
6.01854e-06
5.99987e-06
5.9672e-06
5.97283e-06
6.00549e-06
6.02382e-06
6.03493e-06
6.04158e-06
6.04157e-06
6.03447e-06
6.02379e-06
6.00548e-06
5.97282e-06
5.97282e-06
6.00548e-06
6.02379e-06
6.03448e-06
6.04155e-06
6.04155e-06
6.03447e-06
6.02379e-06
6.00547e-06
5.97282e-06
5.9672e-06
5.99987e-06
6.01854e-06
6.02998e-06
6.03491e-06
6.03491e-06
6.02998e-06
6.01854e-06
5.99987e-06
5.9672e-06
5.95436e-06
5.98831e-06
6.01089e-06
6.0192e-06
6.0238e-06
6.0238e-06
6.01921e-06
6.01089e-06
5.98831e-06
5.95436e-06
5.92851e-06
5.96747e-06
5.99342e-06
5.99998e-06
6.00547e-06
6.00547e-06
5.99998e-06
5.99343e-06
5.96747e-06
5.92852e-06
5.88722e-06
5.93058e-06
5.9545e-06
5.96719e-06
5.97282e-06
5.97282e-06
5.96719e-06
5.9545e-06
5.93058e-06
5.88722e-06
5.52572e-06
5.6525e-06
5.72878e-06
5.76762e-06
5.78457e-06
5.78453e-06
5.76751e-06
5.72937e-06
5.65736e-06
5.52554e-06
5.65762e-06
5.7692e-06
5.83124e-06
5.86547e-06
5.88197e-06
5.88193e-06
5.86611e-06
5.84425e-06
5.76893e-06
5.65226e-06
5.72954e-06
5.84443e-06
5.89763e-06
5.92137e-06
5.93667e-06
5.93674e-06
5.9231e-06
5.89748e-06
5.83104e-06
5.7286e-06
5.7676e-06
5.86622e-06
5.9232e-06
5.95507e-06
5.96871e-06
5.9698e-06
5.95498e-06
5.92126e-06
5.86534e-06
5.76752e-06
5.78456e-06
5.88196e-06
5.93676e-06
5.96982e-06
5.98932e-06
5.98927e-06
5.96859e-06
5.93658e-06
5.88189e-06
5.78452e-06
5.78453e-06
5.88192e-06
5.93661e-06
5.96865e-06
5.98926e-06
5.98923e-06
5.96858e-06
5.93658e-06
5.88189e-06
5.78451e-06
5.76751e-06
5.86534e-06
5.92126e-06
5.95497e-06
5.96979e-06
5.96978e-06
5.95496e-06
5.92125e-06
5.86533e-06
5.76751e-06
5.72859e-06
5.83104e-06
5.89747e-06
5.92308e-06
5.9367e-06
5.93669e-06
5.92308e-06
5.89747e-06
5.83104e-06
5.7286e-06
5.65226e-06
5.76893e-06
5.84424e-06
5.8661e-06
5.88189e-06
5.88189e-06
5.8661e-06
5.84424e-06
5.76893e-06
5.65226e-06
5.52555e-06
5.65736e-06
5.72937e-06
5.7675e-06
5.78451e-06
5.78451e-06
5.7675e-06
5.72937e-06
5.65736e-06
5.52555e-06
5.17408e-06
5.38331e-06
5.50753e-06
5.57194e-06
5.60009e-06
5.60004e-06
5.57186e-06
5.50898e-06
5.39033e-06
5.17397e-06
5.39056e-06
5.57493e-06
5.67703e-06
5.73324e-06
5.76024e-06
5.76023e-06
5.73474e-06
5.69613e-06
5.57462e-06
5.38312e-06
5.50915e-06
5.69637e-06
5.78525e-06
5.82567e-06
5.85055e-06
5.85075e-06
5.82836e-06
5.78505e-06
5.67678e-06
5.50735e-06
5.57196e-06
5.7349e-06
5.8285e-06
5.8808e-06
5.90364e-06
5.90526e-06
5.88068e-06
5.82552e-06
5.73307e-06
5.57183e-06
5.60008e-06
5.76028e-06
5.8508e-06
5.90531e-06
5.93705e-06
5.93698e-06
5.90344e-06
5.85043e-06
5.76014e-06
5.60004e-06
5.60005e-06
5.76019e-06
5.8505e-06
5.90359e-06
5.93698e-06
5.93693e-06
5.90343e-06
5.85043e-06
5.76014e-06
5.60004e-06
5.57183e-06
5.73309e-06
5.82554e-06
5.88069e-06
5.90531e-06
5.90529e-06
5.88066e-06
5.82551e-06
5.73307e-06
5.57184e-06
5.50735e-06
5.67679e-06
5.78506e-06
5.82835e-06
5.85071e-06
5.85071e-06
5.82833e-06
5.78504e-06
5.67678e-06
5.50737e-06
5.38313e-06
5.57464e-06
5.69615e-06
5.73475e-06
5.7602e-06
5.76019e-06
5.73473e-06
5.69614e-06
5.57463e-06
5.38314e-06
5.17401e-06
5.39037e-06
5.50902e-06
5.57188e-06
5.60004e-06
5.60003e-06
5.57187e-06
5.509e-06
5.39036e-06
5.174e-06
4.83925e-06
5.12316e-06
5.29216e-06
5.38114e-06
5.42012e-06
5.42009e-06
5.38121e-06
5.29469e-06
5.13192e-06
4.83937e-06
5.13198e-06
5.38545e-06
5.52605e-06
5.60345e-06
5.64053e-06
5.6406e-06
5.60596e-06
5.54992e-06
5.38528e-06
5.12323e-06
5.29479e-06
5.55012e-06
5.67405e-06
5.73144e-06
5.7655e-06
5.76587e-06
5.73499e-06
5.67389e-06
5.52589e-06
5.29215e-06
5.38131e-06
5.60613e-06
5.73513e-06
5.80723e-06
5.83921e-06
5.84126e-06
5.80712e-06
5.73132e-06
5.60333e-06
5.38114e-06
5.42016e-06
5.64068e-06
5.76594e-06
5.84132e-06
5.88473e-06
5.88465e-06
5.83896e-06
5.76538e-06
5.64046e-06
5.42015e-06
5.42014e-06
5.64051e-06
5.76548e-06
5.83919e-06
5.88469e-06
5.88463e-06
5.83895e-06
5.76538e-06
5.64046e-06
5.42016e-06
5.38113e-06
5.60335e-06
5.73135e-06
5.80716e-06
5.8414e-06
5.84138e-06
5.80711e-06
5.73131e-06
5.60333e-06
5.38116e-06
5.29216e-06
5.52591e-06
5.67392e-06
5.73501e-06
5.76588e-06
5.76587e-06
5.73498e-06
5.6739e-06
5.5259e-06
5.29219e-06
5.12325e-06
5.38532e-06
5.54997e-06
5.606e-06
5.64061e-06
5.6406e-06
5.60598e-06
5.54995e-06
5.38531e-06
5.12327e-06
4.83946e-06
5.13202e-06
5.29479e-06
5.3813e-06
5.42015e-06
5.42015e-06
5.38128e-06
5.29476e-06
5.132e-06
4.83946e-06
4.52473e-06
4.87328e-06
5.08354e-06
5.19577e-06
5.24509e-06
5.24511e-06
5.19612e-06
5.08729e-06
4.88353e-06
4.52537e-06
4.88325e-06
5.20097e-06
5.37831e-06
5.47608e-06
5.52283e-06
5.52305e-06
5.47969e-06
5.40601e-06
5.20113e-06
4.87379e-06
5.08721e-06
5.40603e-06
5.56407e-06
5.63852e-06
5.68142e-06
5.68201e-06
5.64287e-06
5.56406e-06
5.37838e-06
5.08386e-06
5.19616e-06
5.4798e-06
5.64295e-06
5.73427e-06
5.77528e-06
5.77769e-06
5.73422e-06
5.63851e-06
5.47612e-06
5.19599e-06
5.2452e-06
5.52314e-06
5.68208e-06
5.77774e-06
5.83229e-06
5.83224e-06
5.77502e-06
5.68137e-06
5.52286e-06
5.24528e-06
5.24521e-06
5.52289e-06
5.68148e-06
5.77532e-06
5.83231e-06
5.83226e-06
5.77502e-06
5.68137e-06
5.52287e-06
5.24529e-06
5.19594e-06
5.47614e-06
5.63855e-06
5.7343e-06
5.77796e-06
5.77794e-06
5.73425e-06
5.63852e-06
5.47614e-06
5.19602e-06
5.08386e-06
5.37843e-06
5.56411e-06
5.64295e-06
5.68212e-06
5.6821e-06
5.64292e-06
5.56409e-06
5.37843e-06
5.08393e-06
4.87385e-06
5.20121e-06
5.40613e-06
5.47981e-06
5.52315e-06
5.52314e-06
5.47977e-06
5.4061e-06
5.20121e-06
4.87389e-06
4.52556e-06
4.88373e-06
5.0875e-06
5.19632e-06
5.24531e-06
5.2453e-06
5.19629e-06
5.08746e-06
4.88371e-06
4.52557e-06
4.23035e-06
4.63375e-06
4.88172e-06
5.01581e-06
5.075e-06
5.07509e-06
5.01654e-06
4.88674e-06
4.64528e-06
4.23169e-06
4.64458e-06
5.02135e-06
5.23368e-06
5.35105e-06
5.40709e-06
5.40751e-06
5.35578e-06
5.26447e-06
5.02196e-06
4.63477e-06
4.88642e-06
5.26421e-06
5.45529e-06
5.54677e-06
5.59824e-06
5.59906e-06
5.55188e-06
5.4555e-06
5.23407e-06
4.88243e-06
5.01647e-06
5.35576e-06
5.55185e-06
5.66184e-06
5.71174e-06
5.71446e-06
5.66189e-06
5.54692e-06
5.3513e-06
5.01628e-06
5.07517e-06
5.40758e-06
5.59912e-06
5.71449e-06
5.77971e-06
5.7797e-06
5.7115e-06
5.59827e-06
5.40724e-06
5.07534e-06
5.07519e-06
5.40724e-06
5.59838e-06
5.71186e-06
5.77981e-06
5.77977e-06
5.71152e-06
5.59828e-06
5.40725e-06
5.07535e-06
5.01618e-06
5.35131e-06
5.54697e-06
5.66201e-06
5.71488e-06
5.71486e-06
5.66196e-06
5.54695e-06
5.35134e-06
5.01632e-06
4.88238e-06
5.23411e-06
5.45556e-06
5.552e-06
5.59928e-06
5.59927e-06
5.55197e-06
5.45555e-06
5.23414e-06
4.88251e-06
4.63478e-06
5.02204e-06
5.26459e-06
5.35594e-06
5.4077e-06
5.40769e-06
5.35591e-06
5.26458e-06
5.02206e-06
4.63489e-06
4.23183e-06
4.64546e-06
4.88697e-06
5.0168e-06
5.07538e-06
5.07538e-06
5.01678e-06
4.88697e-06
4.6455e-06
4.23195e-06
3.95394e-06
4.40367e-06
4.68587e-06
4.84047e-06
4.90905e-06
4.90921e-06
4.84154e-06
4.69195e-06
4.41596e-06
3.95549e-06
4.415e-06
4.84597e-06
5.09165e-06
5.22799e-06
5.293e-06
5.29363e-06
5.23381e-06
5.12483e-06
4.84697e-06
4.4049e-06
4.69142e-06
5.12428e-06
5.34747e-06
5.45596e-06
5.51579e-06
5.51685e-06
5.46178e-06
5.34793e-06
5.09237e-06
4.68677e-06
4.84135e-06
5.23363e-06
5.4616e-06
5.58983e-06
5.6485e-06
5.65148e-06
5.59001e-06
5.4563e-06
5.22845e-06
4.84107e-06
4.90923e-06
5.29367e-06
5.51688e-06
5.65147e-06
5.72698e-06
5.72701e-06
5.6483e-06
5.5159e-06
5.29325e-06
4.90945e-06
4.90927e-06
5.29323e-06
5.51602e-06
5.64871e-06
5.72716e-06
5.72714e-06
5.64834e-06
5.51592e-06
5.29327e-06
4.90947e-06
4.84095e-06
5.22845e-06
5.45635e-06
5.59017e-06
5.65205e-06
5.65204e-06
5.59013e-06
5.45635e-06
5.22849e-06
4.84112e-06
4.68674e-06
5.09242e-06
5.34802e-06
5.46195e-06
5.51719e-06
5.51718e-06
5.46192e-06
5.34801e-06
5.09245e-06
4.68688e-06
4.40497e-06
4.84708e-06
5.12499e-06
5.23401e-06
5.29392e-06
5.29391e-06
5.23398e-06
5.12498e-06
4.8471e-06
4.40507e-06
3.95571e-06
4.41617e-06
4.69222e-06
4.84183e-06
4.90956e-06
4.90955e-06
4.84182e-06
4.6922e-06
4.4162e-06
3.95581e-06
3.6947e-06
4.18266e-06
4.49545e-06
4.66916e-06
4.74669e-06
4.74693e-06
4.6706e-06
4.50247e-06
4.19543e-06
3.69634e-06
4.19428e-06
4.67452e-06
4.95197e-06
5.10666e-06
5.18036e-06
5.18121e-06
5.11351e-06
4.98694e-06
4.67587e-06
4.184e-06
4.50177e-06
4.9861e-06
5.24053e-06
5.36597e-06
5.43397e-06
5.43528e-06
5.37244e-06
5.24125e-06
4.95298e-06
4.49647e-06
4.67028e-06
5.11316e-06
5.37209e-06
5.5182e-06
5.58551e-06
5.58871e-06
5.5185e-06
5.36649e-06
5.10729e-06
4.66982e-06
4.74689e-06
5.18119e-06
5.43526e-06
5.58866e-06
5.6741e-06
5.67418e-06
5.58534e-06
5.43415e-06
5.18065e-06
4.74708e-06
4.74693e-06
5.18065e-06
5.43428e-06
5.5858e-06
5.67437e-06
5.67436e-06
5.58539e-06
5.43417e-06
5.18067e-06
4.7471e-06
4.66974e-06
5.1073e-06
5.36655e-06
5.51871e-06
5.58942e-06
5.58941e-06
5.51866e-06
5.36655e-06
5.10734e-06
4.66986e-06
4.49648e-06
4.95303e-06
5.24134e-06
5.37263e-06
5.43572e-06
5.43571e-06
5.37261e-06
5.24133e-06
4.95305e-06
4.49655e-06
4.18409e-06
4.67597e-06
4.98709e-06
5.11371e-06
5.18154e-06
5.18153e-06
5.11368e-06
4.98707e-06
4.67598e-06
4.18413e-06
3.69653e-06
4.19557e-06
4.50268e-06
4.67085e-06
4.74725e-06
4.74724e-06
4.67082e-06
4.50266e-06
4.19559e-06
3.69656e-06
3.45355e-06
3.97112e-06
4.31062e-06
4.5019e-06
4.58784e-06
4.58815e-06
4.50368e-06
4.3184e-06
3.98408e-06
3.4551e-06
3.98281e-06
4.50707e-06
4.81457e-06
4.98697e-06
5.06907e-06
5.07015e-06
4.99478e-06
4.85084e-06
4.50869e-06
3.97245e-06
4.31753e-06
4.84972e-06
5.13448e-06
5.27676e-06
5.35277e-06
5.35432e-06
5.28383e-06
5.13545e-06
4.81583e-06
4.31168e-06
4.50321e-06
4.99424e-06
5.2833e-06
5.44693e-06
5.52275e-06
5.52615e-06
5.44737e-06
5.27745e-06
4.98776e-06
4.50256e-06
4.58801e-06
5.07005e-06
5.35424e-06
5.52604e-06
5.62111e-06
5.62124e-06
5.52262e-06
5.353e-06
5.0694e-06
4.58818e-06
4.58804e-06
5.06939e-06
5.35315e-06
5.52313e-06
5.62147e-06
5.62148e-06
5.52269e-06
5.35303e-06
5.06941e-06
4.58819e-06
4.50249e-06
4.98777e-06
5.27752e-06
5.44761e-06
5.52699e-06
5.52699e-06
5.44756e-06
5.27751e-06
4.9878e-06
4.50259e-06
4.31168e-06
4.81588e-06
5.13554e-06
5.28403e-06
5.35485e-06
5.35484e-06
5.284e-06
5.13552e-06
4.81589e-06
4.31172e-06
3.97253e-06
4.50877e-06
4.85095e-06
4.99496e-06
5.07052e-06
5.07051e-06
4.99493e-06
4.85092e-06
4.50876e-06
3.97253e-06
3.4552e-06
3.98413e-06
4.31853e-06
4.50385e-06
4.58842e-06
4.58841e-06
4.50383e-06
4.31851e-06
3.98413e-06
3.4552e-06
3.23293e-06
3.77003e-06
4.13196e-06
4.33907e-06
4.43278e-06
4.43316e-06
4.34115e-06
4.14031e-06
3.78292e-06
3.23425e-06
3.78166e-06
4.34404e-06
4.67963e-06
4.86903e-06
4.9592e-06
4.96049e-06
4.87767e-06
4.71674e-06
4.34578e-06
3.77121e-06
4.13933e-06
4.71541e-06
5.02946e-06
5.18836e-06
5.27221e-06
5.27398e-06
5.19595e-06
5.03064e-06
4.68106e-06
4.13296e-06
4.34054e-06
4.87696e-06
5.19526e-06
5.37609e-06
5.46027e-06
5.46382e-06
5.37664e-06
5.18919e-06
4.86992e-06
4.33967e-06
4.43291e-06
4.96031e-06
5.27383e-06
5.46366e-06
5.56807e-06
5.56824e-06
5.46016e-06
5.27247e-06
4.95952e-06
4.43304e-06
4.4329e-06
4.95953e-06
5.27263e-06
5.4607e-06
5.56849e-06
5.56852e-06
5.46025e-06
5.2725e-06
4.95954e-06
4.43304e-06
4.3396e-06
4.86991e-06
5.18925e-06
5.3769e-06
5.46477e-06
5.46478e-06
5.37686e-06
5.18925e-06
4.86994e-06
4.33968e-06
4.13293e-06
4.68108e-06
5.03071e-06
5.19614e-06
5.27459e-06
5.27458e-06
5.19613e-06
5.03069e-06
4.68108e-06
4.13296e-06
3.77123e-06
4.3458e-06
4.71679e-06
4.87781e-06
4.96088e-06
4.96088e-06
4.87779e-06
4.71676e-06
4.34579e-06
3.77123e-06
3.23421e-06
3.78284e-06
4.14032e-06
4.34122e-06
4.43335e-06
4.43335e-06
4.3412e-06
4.14031e-06
3.78285e-06
3.23421e-06
3.03586e-06
3.58047e-06
3.96011e-06
4.18112e-06
4.28189e-06
4.28234e-06
4.18347e-06
3.96889e-06
3.59314e-06
3.03689e-06
3.592e-06
4.18586e-06
4.54736e-06
4.75292e-06
4.85084e-06
4.85233e-06
4.76227e-06
4.58491e-06
4.18758e-06
3.58148e-06
3.9679e-06
4.58348e-06
4.92562e-06
5.10084e-06
5.19235e-06
5.19431e-06
5.10886e-06
4.92692e-06
4.54885e-06
3.96103e-06
4.18279e-06
4.76143e-06
5.10805e-06
5.3057e-06
5.39808e-06
5.40174e-06
5.30633e-06
5.10176e-06
4.75385e-06
4.18166e-06
4.28201e-06
4.85207e-06
5.1941e-06
5.40154e-06
5.51501e-06
5.5152e-06
5.39797e-06
5.1926e-06
4.85112e-06
4.28205e-06
4.28195e-06
4.85114e-06
5.19277e-06
5.39854e-06
5.51548e-06
5.51552e-06
5.39806e-06
5.19262e-06
4.85112e-06
4.28204e-06
4.18158e-06
4.75383e-06
5.10181e-06
5.3066e-06
5.40278e-06
5.40279e-06
5.30656e-06
5.10181e-06
4.75386e-06
4.18163e-06
3.96094e-06
4.54882e-06
4.92694e-06
5.10902e-06
5.19497e-06
5.19497e-06
5.10901e-06
4.92694e-06
4.54882e-06
3.96096e-06
3.58139e-06
4.18749e-06
4.58486e-06
4.76233e-06
4.8527e-06
4.8527e-06
4.76233e-06
4.58486e-06
4.1875e-06
3.5814e-06
3.03666e-06
3.5929e-06
3.96875e-06
4.1834e-06
4.28242e-06
4.28242e-06
4.18341e-06
3.96877e-06
3.59295e-06
3.0367e-06
2.86792e-06
3.40406e-06
3.79583e-06
4.02855e-06
4.13556e-06
4.13607e-06
4.0311e-06
3.80481e-06
3.41626e-06
2.86849e-06
3.41539e-06
4.03295e-06
4.41792e-06
4.63875e-06
4.74404e-06
4.7457e-06
4.64865e-06
4.45556e-06
4.03449e-06
3.40475e-06
3.80391e-06
4.45414e-06
4.82304e-06
5.01421e-06
5.11318e-06
5.11531e-06
5.02256e-06
4.82437e-06
4.41935e-06
3.79655e-06
4.03039e-06
4.64776e-06
5.02169e-06
5.23579e-06
5.33619e-06
5.33994e-06
5.23646e-06
5.01516e-06
4.63966e-06
4.02897e-06
4.13567e-06
4.74539e-06
5.11506e-06
5.3397e-06
5.46196e-06
5.46217e-06
5.33605e-06
5.1134e-06
4.74426e-06
4.13561e-06
4.13555e-06
4.74431e-06
5.11361e-06
5.33667e-06
5.46247e-06
5.46251e-06
5.33615e-06
5.11342e-06
4.74426e-06
4.1356e-06
4.0289e-06
4.63963e-06
5.0152e-06
5.23674e-06
5.34105e-06
5.34106e-06
5.2367e-06
5.01521e-06
4.63965e-06
4.02892e-06
3.79645e-06
4.4193e-06
4.82437e-06
5.02271e-06
5.11602e-06
5.11602e-06
5.02271e-06
4.82436e-06
4.41929e-06
3.79644e-06
3.40462e-06
4.03436e-06
4.45545e-06
4.64866e-06
4.74608e-06
4.74608e-06
4.64867e-06
4.45546e-06
4.03436e-06
3.40461e-06
2.86823e-06
3.416e-06
3.80461e-06
4.03095e-06
4.13606e-06
4.13607e-06
4.03096e-06
3.80463e-06
3.41603e-06
2.86826e-06
2.73688e-06
3.24294e-06
3.63999e-06
3.88191e-06
3.99426e-06
3.99481e-06
3.88462e-06
3.6491e-06
3.25462e-06
2.73695e-06
3.25417e-06
3.88596e-06
4.29158e-06
4.52665e-06
4.63892e-06
4.64072e-06
4.53697e-06
4.32899e-06
3.88716e-06
3.24331e-06
3.64844e-06
4.32776e-06
4.72188e-06
4.92855e-06
5.03476e-06
5.03702e-06
4.93711e-06
4.72312e-06
4.29282e-06
3.64054e-06
3.88402e-06
4.53613e-06
4.93627e-06
5.1664e-06
5.27463e-06
5.27842e-06
5.16705e-06
4.92945e-06
4.52748e-06
3.88222e-06
3.99446e-06
4.64043e-06
5.03677e-06
5.27819e-06
5.40896e-06
5.40916e-06
5.27443e-06
5.0349e-06
4.63904e-06
3.99422e-06
3.99425e-06
4.63918e-06
5.03518e-06
5.27511e-06
5.40948e-06
5.40952e-06
5.27453e-06
5.03492e-06
4.63903e-06
3.99419e-06
3.88221e-06
4.52746e-06
4.9295e-06
5.16734e-06
5.27958e-06
5.2796e-06
5.16729e-06
4.92948e-06
4.52744e-06
3.88214e-06
3.64045e-06
4.29276e-06
4.72309e-06
4.93724e-06
5.03776e-06
5.03776e-06
4.93724e-06
4.72308e-06
4.29272e-06
3.64037e-06
3.24316e-06
3.88699e-06
4.32883e-06
4.53691e-06
4.64108e-06
4.64109e-06
4.53693e-06
4.32883e-06
3.88696e-06
3.24308e-06
2.73669e-06
3.25433e-06
3.64882e-06
3.88438e-06
3.99472e-06
3.99473e-06
3.8844e-06
3.64884e-06
3.25434e-06
2.73668e-06
2.65866e-06
3.10083e-06
3.49384e-06
3.74184e-06
3.85845e-06
3.85902e-06
3.74463e-06
3.5029e-06
3.11188e-06
2.65814e-06
3.11192e-06
3.74547e-06
4.16846e-06
4.41667e-06
4.53551e-06
4.53743e-06
4.42727e-06
4.20541e-06
3.74624e-06
3.10078e-06
3.50255e-06
4.20445e-06
4.62215e-06
4.84383e-06
4.95708e-06
4.95943e-06
4.85251e-06
4.62321e-06
4.16944e-06
3.49414e-06
3.74421e-06
4.42656e-06
4.85176e-06
5.09752e-06
5.2134e-06
5.21719e-06
5.0981e-06
4.84464e-06
4.41738e-06
3.74201e-06
3.85876e-06
4.53719e-06
4.95922e-06
5.21699e-06
5.35603e-06
5.3562e-06
5.21311e-06
4.95713e-06
4.53554e-06
3.85831e-06
3.85846e-06
4.53578e-06
4.95749e-06
5.21386e-06
5.35655e-06
5.35656e-06
5.21321e-06
4.95714e-06
4.53553e-06
3.85828e-06
3.74207e-06
4.41741e-06
4.84472e-06
5.09842e-06
5.2184e-06
5.21842e-06
5.09835e-06
4.84466e-06
4.41733e-06
3.74192e-06
3.4941e-06
4.16941e-06
4.6232e-06
4.85264e-06
4.96022e-06
4.96022e-06
4.85264e-06
4.62316e-06
4.16933e-06
3.49396e-06
3.10067e-06
3.7461e-06
4.20525e-06
4.4272e-06
4.53781e-06
4.53781e-06
4.42721e-06
4.20523e-06
3.74603e-06
3.10053e-06
2.65788e-06
3.11163e-06
3.50263e-06
3.74436e-06
3.85888e-06
3.85889e-06
3.74438e-06
3.50262e-06
3.11161e-06
2.65788e-06
2.65562e-06
2.98344e-06
3.35929e-06
3.60933e-06
3.72885e-06
3.72942e-06
3.61213e-06
3.36818e-06
2.99378e-06
2.65438e-06
2.99437e-06
3.61267e-06
4.04893e-06
4.309e-06
4.43395e-06
4.43594e-06
4.31973e-06
4.0852e-06
3.61288e-06
2.98285e-06
3.36822e-06
4.08465e-06
4.524e-06
4.76013e-06
4.88018e-06
4.8826e-06
4.76882e-06
4.52478e-06
4.04955e-06
3.35927e-06
3.61196e-06
4.31925e-06
4.76825e-06
5.0292e-06
5.15251e-06
5.15628e-06
5.02964e-06
4.76076e-06
4.30951e-06
3.60932e-06
3.72928e-06
4.4358e-06
4.88246e-06
5.15614e-06
5.30319e-06
5.30331e-06
5.1521e-06
4.8801e-06
4.43386e-06
3.72862e-06
3.72887e-06
4.43421e-06
4.88058e-06
5.15295e-06
5.30369e-06
5.30367e-06
5.1522e-06
4.88011e-06
4.43384e-06
3.72859e-06
3.60944e-06
4.30959e-06
4.76088e-06
5.03e-06
5.15752e-06
5.15753e-06
5.0299e-06
4.76078e-06
4.30946e-06
3.60924e-06
3.35926e-06
4.04953e-06
4.52477e-06
4.76895e-06
4.8834e-06
4.88341e-06
4.76895e-06
4.52472e-06
4.04942e-06
3.35908e-06
2.98275e-06
3.61275e-06
4.08503e-06
4.31965e-06
4.43632e-06
4.43633e-06
4.31966e-06
4.085e-06
3.61266e-06
2.9826e-06
2.6541e-06
2.99353e-06
3.3679e-06
3.61184e-06
3.72924e-06
3.72925e-06
3.61186e-06
3.36789e-06
2.99352e-06
2.65413e-06
2.77503e-06
2.90037e-06
3.2394e-06
3.48568e-06
3.60635e-06
3.60692e-06
3.48846e-06
3.24807e-06
2.91005e-06
2.77297e-06
2.91119e-06
3.48906e-06
3.93328e-06
4.20371e-06
4.33428e-06
4.33633e-06
4.21447e-06
3.96872e-06
3.48869e-06
2.89919e-06
3.2485e-06
3.96864e-06
4.42747e-06
4.67743e-06
4.80406e-06
4.8065e-06
4.68605e-06
4.42789e-06
3.93348e-06
3.23905e-06
3.48855e-06
4.21427e-06
4.68571e-06
4.9614e-06
5.09196e-06
5.09568e-06
4.96167e-06
4.67784e-06
4.204e-06
3.48552e-06
3.60692e-06
4.33631e-06
4.80647e-06
5.09562e-06
5.25044e-06
5.2505e-06
5.09142e-06
4.80382e-06
4.33407e-06
3.60606e-06
3.60641e-06
4.33454e-06
4.80443e-06
5.09236e-06
5.25091e-06
5.25086e-06
5.09152e-06
4.80383e-06
4.33405e-06
3.60603e-06
3.48568e-06
4.20413e-06
4.67801e-06
4.96207e-06
5.09696e-06
5.09695e-06
4.96194e-06
4.67787e-06
4.20396e-06
3.48545e-06
3.23907e-06
3.93349e-06
4.42791e-06
4.6862e-06
4.80735e-06
4.80735e-06
4.68619e-06
4.42785e-06
3.93337e-06
3.2389e-06
2.89913e-06
3.48859e-06
3.96857e-06
4.2144e-06
4.33673e-06
4.33674e-06
4.21442e-06
3.96855e-06
3.48851e-06
2.89898e-06
2.77259e-06
2.90977e-06
3.2478e-06
3.48819e-06
3.60674e-06
3.60675e-06
3.48821e-06
3.2478e-06
2.9098e-06
2.77259e-06
3.08299e-06
2.86723e-06
3.13902e-06
3.37319e-06
3.49247e-06
3.49304e-06
3.37594e-06
3.14745e-06
2.87633e-06
3.07959e-06
2.87799e-06
3.37715e-06
3.82206e-06
4.10098e-06
4.2366e-06
4.23868e-06
4.11169e-06
3.8566e-06
3.37623e-06
2.86536e-06
3.14822e-06
3.85699e-06
4.33265e-06
4.59576e-06
4.72873e-06
4.73118e-06
4.60424e-06
4.33268e-06
3.82185e-06
3.13831e-06
3.37626e-06
4.11179e-06
4.60417e-06
4.89415e-06
5.03176e-06
5.03542e-06
4.89421e-06
4.59592e-06
4.10105e-06
3.37287e-06
3.49316e-06
4.2388e-06
4.73126e-06
5.03545e-06
5.19782e-06
5.1978e-06
5.03106e-06
4.72833e-06
4.23628e-06
3.49214e-06
3.49255e-06
4.23686e-06
4.72906e-06
5.03211e-06
5.19824e-06
5.19814e-06
5.03116e-06
4.72834e-06
4.23627e-06
3.49212e-06
3.37306e-06
4.10121e-06
4.59613e-06
4.89465e-06
5.03671e-06
5.03669e-06
4.89449e-06
4.59596e-06
4.10103e-06
3.37283e-06
3.13837e-06
3.82188e-06
4.33272e-06
4.60443e-06
4.73206e-06
4.73206e-06
4.60441e-06
4.33266e-06
3.82178e-06
3.13821e-06
2.86538e-06
3.37616e-06
3.8565e-06
4.11167e-06
4.23914e-06
4.23915e-06
4.11169e-06
3.85649e-06
3.37611e-06
2.86518e-06
3.07905e-06
2.87596e-06
3.14719e-06
3.3757e-06
3.4929e-06
3.49291e-06
3.37573e-06
3.1472e-06
2.87602e-06
3.07885e-06
3.7159e-06
2.90713e-06
3.06566e-06
3.27529e-06
3.38955e-06
3.39013e-06
3.27802e-06
3.07384e-06
2.91566e-06
3.71029e-06
2.91796e-06
3.28128e-06
3.71622e-06
4.00111e-06
4.14109e-06
4.14319e-06
4.01171e-06
3.74981e-06
3.27981e-06
2.90439e-06
3.07496e-06
3.75069e-06
4.23972e-06
4.51517e-06
4.65422e-06
4.65665e-06
4.52345e-06
4.23932e-06
3.71557e-06
3.06455e-06
3.27856e-06
4.01214e-06
4.5237e-06
4.82747e-06
4.97193e-06
4.97549e-06
4.82728e-06
4.51504e-06
4.00094e-06
3.27482e-06
3.39037e-06
4.14346e-06
4.65686e-06
4.97564e-06
5.14533e-06
5.14523e-06
4.97105e-06
4.65363e-06
4.14065e-06
3.38919e-06
3.38966e-06
4.14135e-06
4.6545e-06
4.97222e-06
5.1457e-06
5.14554e-06
4.97115e-06
4.65365e-06
4.14065e-06
3.38917e-06
3.27505e-06
4.00115e-06
4.51529e-06
4.82776e-06
4.97679e-06
4.97675e-06
4.82756e-06
4.51509e-06
4.00093e-06
3.27479e-06
3.06465e-06
3.71563e-06
4.23938e-06
4.52366e-06
4.65754e-06
4.65754e-06
4.52364e-06
4.23932e-06
3.71552e-06
3.06447e-06
2.90445e-06
3.27977e-06
3.74974e-06
4.01173e-06
4.14369e-06
4.1437e-06
4.01175e-06
3.74974e-06
3.27972e-06
2.90418e-06
3.70957e-06
2.91517e-06
3.07355e-06
3.27779e-06
3.39001e-06
3.39003e-06
3.27781e-06
3.07355e-06
2.91521e-06
3.70905e-06
4.85215e-06
3.05871e-06
3.03092e-06
3.19718e-06
3.30104e-06
3.30161e-06
3.19986e-06
3.03885e-06
3.06685e-06
4.84318e-06
3.07014e-06
3.20737e-06
3.61706e-06
3.90447e-06
4.04791e-06
4.05001e-06
3.91489e-06
3.64965e-06
3.20534e-06
3.05493e-06
3.04036e-06
3.65104e-06
4.14884e-06
4.43567e-06
4.58053e-06
4.58292e-06
4.4437e-06
4.14797e-06
3.61597e-06
3.02931e-06
3.2006e-06
3.91567e-06
4.44428e-06
4.76133e-06
4.91246e-06
4.91592e-06
4.76088e-06
4.43523e-06
3.90406e-06
3.1965e-06
3.30195e-06
4.05044e-06
4.58327e-06
4.91618e-06
5.09299e-06
5.09278e-06
4.91139e-06
4.57974e-06
4.04737e-06
3.30061e-06
3.30115e-06
4.04817e-06
4.58074e-06
4.91267e-06
5.09328e-06
5.09307e-06
4.91148e-06
4.57976e-06
4.04737e-06
3.30059e-06
3.19678e-06
3.90432e-06
4.43554e-06
4.76141e-06
4.91721e-06
4.91715e-06
4.76116e-06
4.43529e-06
3.90407e-06
3.19648e-06
3.02947e-06
3.6161e-06
4.14809e-06
4.44396e-06
4.58384e-06
4.58383e-06
4.44393e-06
4.14801e-06
3.61597e-06
3.02925e-06
3.05495e-06
3.2054e-06
3.64969e-06
3.91502e-06
4.0506e-06
4.0506e-06
3.91502e-06
3.64966e-06
3.2053e-06
3.05456e-06
4.84127e-06
3.06603e-06
3.03848e-06
3.19963e-06
3.30152e-06
3.30153e-06
3.19963e-06
3.03845e-06
3.06613e-06
4.84091e-06
6.90148e-06
3.37993e-06
3.05234e-06
3.14736e-06
3.23288e-06
3.23343e-06
3.14994e-06
3.05995e-06
3.38773e-06
6.89357e-06
3.39234e-06
3.16546e-06
3.52681e-06
3.8118e-06
3.95748e-06
3.95957e-06
3.82202e-06
3.55846e-06
3.16288e-06
3.37483e-06
3.06194e-06
3.56032e-06
4.06038e-06
4.35737e-06
4.50771e-06
4.51005e-06
4.36512e-06
4.05905e-06
3.52528e-06
3.05005e-06
3.15087e-06
3.82314e-06
4.36604e-06
4.69579e-06
4.85339e-06
4.85672e-06
4.69505e-06
4.35659e-06
3.81112e-06
3.14636e-06
3.23382e-06
3.96014e-06
4.51053e-06
4.8571e-06
5.04081e-06
5.0405e-06
4.85209e-06
4.50669e-06
3.95679e-06
3.2323e-06
3.23292e-06
3.95772e-06
4.50784e-06
4.85349e-06
5.04101e-06
5.04074e-06
4.85216e-06
4.5067e-06
3.95679e-06
3.23228e-06
3.14666e-06
3.81143e-06
4.35694e-06
4.6956e-06
4.85797e-06
4.85789e-06
4.69531e-06
4.35664e-06
3.81113e-06
3.14634e-06
3.05017e-06
3.52546e-06
4.05919e-06
4.36539e-06
4.51095e-06
4.51094e-06
4.36534e-06
4.05909e-06
3.52528e-06
3.04999e-06
3.37456e-06
3.16297e-06
3.55852e-06
3.82218e-06
3.96018e-06
3.96018e-06
3.82218e-06
3.55847e-06
3.16281e-06
3.37427e-06
6.89029e-06
3.38659e-06
3.05946e-06
3.14965e-06
3.2333e-06
3.2333e-06
3.14962e-06
3.05939e-06
3.38673e-06
6.89097e-06
1.02966e-05
3.97644e-06
3.15972e-06
3.13789e-06
3.19306e-06
3.19359e-06
3.1404e-06
3.16717e-06
3.98413e-06
1.02818e-05
3.99108e-06
3.16934e-06
3.44854e-06
3.72402e-06
3.87022e-06
3.8723e-06
3.73405e-06
3.47936e-06
3.1662e-06
3.96949e-06
3.16982e-06
3.48161e-06
3.97466e-06
4.28027e-06
4.43574e-06
4.43803e-06
4.28775e-06
3.97295e-06
3.44668e-06
3.15659e-06
3.1415e-06
3.73542e-06
4.28896e-06
4.6308e-06
4.79467e-06
4.79789e-06
4.62979e-06
4.27918e-06
3.72314e-06
3.13645e-06
3.19396e-06
3.87296e-06
4.43861e-06
4.79836e-06
4.98879e-06
4.98837e-06
4.79316e-06
4.43451e-06
3.86945e-06
3.19221e-06
3.19293e-06
3.8704e-06
4.43576e-06
4.79466e-06
4.9889e-06
4.98857e-06
4.79322e-06
4.43453e-06
3.86946e-06
3.1922e-06
3.13682e-06
3.72341e-06
4.27954e-06
4.63036e-06
4.7991e-06
4.799e-06
4.63005e-06
4.27924e-06
3.72317e-06
3.13644e-06
3.15681e-06
3.44681e-06
3.97309e-06
4.28803e-06
4.43892e-06
4.43891e-06
4.28799e-06
3.97303e-06
3.44672e-06
3.15646e-06
3.96904e-06
3.16624e-06
3.47946e-06
3.73428e-06
3.87299e-06
3.87299e-06
3.73429e-06
3.47944e-06
3.16612e-06
3.96828e-06
1.02773e-05
3.98241e-06
3.1663e-06
3.13988e-06
3.19329e-06
3.19329e-06
3.13986e-06
3.16623e-06
3.98242e-06
1.0277e-05
1.53022e-05
5.00537e-06
3.39157e-06
3.18787e-06
3.19425e-06
3.19472e-06
3.19021e-06
3.39889e-06
5.01367e-06
1.52779e-05
5.02331e-06
3.24272e-06
3.388e-06
3.64311e-06
3.78727e-06
3.7893e-06
3.65286e-06
3.41795e-06
3.23877e-06
4.99657e-06
3.40244e-06
3.42068e-06
3.89272e-06
4.20465e-06
4.36476e-06
4.36697e-06
4.21181e-06
3.89055e-06
3.38556e-06
3.38751e-06
3.19162e-06
3.65448e-06
4.21332e-06
4.56645e-06
4.73637e-06
4.73946e-06
4.56515e-06
4.20318e-06
3.64182e-06
3.18583e-06
3.19509e-06
3.78999e-06
4.36763e-06
4.74003e-06
4.93695e-06
4.93643e-06
4.73462e-06
4.36325e-06
3.78622e-06
3.19301e-06
3.19388e-06
3.78726e-06
4.36461e-06
4.73621e-06
4.93696e-06
4.93657e-06
4.73466e-06
4.36326e-06
3.78623e-06
3.193e-06
3.18632e-06
3.64208e-06
4.20354e-06
4.5657e-06
4.74058e-06
4.74047e-06
4.56536e-06
4.20323e-06
3.64186e-06
3.18582e-06
3.38798e-06
3.38562e-06
3.89061e-06
4.21202e-06
4.36777e-06
4.36776e-06
4.21201e-06
3.8906e-06
3.38558e-06
3.38732e-06
4.99693e-06
3.23872e-06
3.41789e-06
3.65297e-06
3.78987e-06
3.78989e-06
3.65303e-06
3.41795e-06
3.23855e-06
4.99481e-06
1.52767e-05
5.01263e-06
3.39801e-06
3.18955e-06
3.19423e-06
3.19421e-06
3.18941e-06
3.39756e-06
5.01118e-06
1.5271e-05
2.19927e-05
6.62063e-06
3.81391e-06
3.32483e-06
3.25674e-06
3.2572e-06
3.32728e-06
3.82201e-06
6.63196e-06
2.19633e-05
6.64519e-06
3.40941e-06
3.35134e-06
3.57131e-06
3.7098e-06
3.71179e-06
3.58081e-06
3.38062e-06
3.40461e-06
6.61115e-06
3.82683e-06
3.38378e-06
3.81536e-06
4.13059e-06
4.29474e-06
4.29688e-06
4.13744e-06
3.81279e-06
3.34839e-06
3.80949e-06
3.3291e-06
3.58264e-06
4.13922e-06
4.50269e-06
4.67845e-06
4.68141e-06
4.50112e-06
4.12877e-06
3.56964e-06
3.32242e-06
3.25764e-06
3.71249e-06
4.2976e-06
4.68207e-06
4.8853e-06
4.88467e-06
4.67646e-06
4.29296e-06
3.70849e-06
3.25514e-06
3.25623e-06
3.70962e-06
4.29444e-06
4.67816e-06
4.8852e-06
4.88475e-06
4.67648e-06
4.29296e-06
3.7085e-06
3.25513e-06
3.32312e-06
3.56992e-06
4.12915e-06
4.50167e-06
4.68245e-06
4.68232e-06
4.50129e-06
4.12881e-06
3.56968e-06
3.32241e-06
3.81021e-06
3.34846e-06
3.81284e-06
4.13763e-06
4.2976e-06
4.29759e-06
4.1376e-06
3.81283e-06
3.34838e-06
3.80921e-06
6.6118e-06
3.40454e-06
3.38051e-06
3.58086e-06
3.71228e-06
3.7123e-06
3.58091e-06
3.38053e-06
3.40421e-06
6.60883e-06
2.19632e-05
6.63108e-06
3.82091e-06
3.32639e-06
3.25645e-06
3.25641e-06
3.32617e-06
3.82026e-06
6.62896e-06
2.19559e-05
3.01748e-05
9.36885e-06
4.53268e-06
3.59118e-06
3.40488e-06
3.40532e-06
3.59378e-06
4.5415e-06
9.38205e-06
3.01342e-05
9.40042e-06
3.72614e-06
3.35025e-06
3.51284e-06
3.64034e-06
3.64227e-06
3.52212e-06
3.3791e-06
3.72044e-06
9.3572e-06
4.54784e-06
3.38274e-06
3.74454e-06
4.05858e-06
4.2259e-06
4.22796e-06
4.06511e-06
3.74152e-06
3.34673e-06
4.52775e-06
3.59602e-06
3.52413e-06
4.06716e-06
4.43965e-06
4.62095e-06
4.62378e-06
4.43778e-06
4.05635e-06
3.51067e-06
3.58858e-06
3.40584e-06
3.64298e-06
4.22874e-06
4.62454e-06
4.83385e-06
4.83311e-06
4.61871e-06
4.22378e-06
3.6386e-06
3.4031e-06
3.4042e-06
3.63997e-06
4.22545e-06
4.62053e-06
4.83364e-06
4.83312e-06
4.6187e-06
4.22377e-06
3.6386e-06
3.4031e-06
3.58915e-06
3.51109e-06
4.05679e-06
4.43833e-06
4.62472e-06
4.62456e-06
4.43789e-06
4.05635e-06
3.51068e-06
3.58864e-06
4.52829e-06
3.34687e-06
3.74156e-06
4.06521e-06
4.22855e-06
4.22853e-06
4.06516e-06
3.74148e-06
3.34665e-06
4.52762e-06
9.35755e-06
3.72044e-06
3.37892e-06
3.52197e-06
3.64254e-06
3.64255e-06
3.52201e-06
3.37884e-06
3.71991e-06
9.35487e-06
3.01346e-05
9.38215e-06
4.54071e-06
3.59297e-06
3.40454e-06
3.40445e-06
3.59252e-06
4.53956e-06
9.37895e-06
3.01275e-05
3.94142e-05
1.34811e-05
5.6714e-06
4.05069e-06
3.68476e-06
3.68528e-06
4.05356e-06
5.68105e-06
1.34923e-05
3.9364e-05
1.35206e-05
4.26477e-06
3.39866e-06
3.47285e-06
3.58198e-06
3.58389e-06
3.48201e-06
3.4275e-06
4.2578e-06
1.34646e-05
5.69073e-06
3.43157e-06
3.6825e-06
3.98903e-06
4.15837e-06
4.16035e-06
3.99529e-06
3.67916e-06
3.39469e-06
5.66591e-06
4.05697e-06
3.48412e-06
3.99753e-06
4.3773e-06
4.56386e-06
4.56656e-06
4.37519e-06
3.98647e-06
3.47031e-06
4.04796e-06
3.68625e-06
3.58452e-06
4.16117e-06
4.5674e-06
4.7826e-06
4.78176e-06