/*--------------------------------*- C++ -*----------------------------------*\
| =========                 |                                                 |
| \\      /  F ield         | OpenFOAM: The Open Source CFD Toolbox           |
|  \\    /   O peration     | Version:  2406                                  |
|   \\  /    A nd           | Website:  www.openfoam.com                      |
|    \\/     M anipulation  |                                                 |
\*---------------------------------------------------------------------------*/
FoamFile
{
    version     2.0;
    format      ascii;
    arch        "LSB;label=32;scalar=64";
    class       volScalarField;
    location    "100";
    object      nuTilda;
}
// * * * * * * * * * * * * * * * * * * * * * * * * * * * * * * * * * * * * * //

dimensions      [0 2 -1 0 0 0 0];

internalField   nonuniform List<scalar> 
25000
(
3.96613e-05
3.97396e-05
3.97882e-05
3.98123e-05
3.98228e-05
3.98228e-05
3.98122e-05
3.97884e-05
3.97433e-05
3.96613e-05
3.97435e-05
3.98129e-05
3.9852e-05
3.98736e-05
3.98841e-05
3.98841e-05
3.98738e-05
3.98615e-05
3.98128e-05
3.97394e-05
3.97885e-05
3.98616e-05
3.98943e-05
3.99086e-05
3.99183e-05
3.99183e-05
3.99097e-05
3.98942e-05
3.98519e-05
3.97881e-05
3.98123e-05
3.98738e-05
3.99098e-05
3.99299e-05
3.99383e-05
3.99391e-05
3.99299e-05
3.99085e-05
3.98735e-05
3.98123e-05
3.98228e-05
3.98841e-05
3.99184e-05
3.99391e-05
3.99515e-05
3.99515e-05
3.99382e-05
3.99183e-05
3.9884e-05
3.98228e-05
3.98228e-05
3.9884e-05
3.99183e-05
3.99382e-05
3.99514e-05
3.99514e-05
3.99382e-05
3.99183e-05
3.9884e-05
3.98228e-05
3.98123e-05
3.98735e-05
3.99085e-05
3.99299e-05
3.9939e-05
3.9939e-05
3.99299e-05
3.99085e-05
3.98735e-05
3.98123e-05
3.97881e-05
3.98519e-05
3.98942e-05
3.99097e-05
3.99183e-05
3.99183e-05
3.99097e-05
3.98942e-05
3.98519e-05
3.97881e-05
3.97394e-05
3.98128e-05
3.98615e-05
3.98738e-05
3.9884e-05
3.9884e-05
3.98738e-05
3.98615e-05
3.98128e-05
3.97394e-05
3.96613e-05
3.97433e-05
3.97884e-05
3.98122e-05
3.98228e-05
3.98228e-05
3.98122e-05
3.97884e-05
3.97433e-05
3.96613e-05
3.89625e-05
3.92108e-05
3.93585e-05
3.94332e-05
3.94657e-05
3.94656e-05
3.9433e-05
3.93596e-05
3.92202e-05
3.89621e-05
3.92207e-05
3.94362e-05
3.95549e-05
3.96201e-05
3.96514e-05
3.96513e-05
3.96213e-05
3.95797e-05
3.94357e-05
3.92103e-05
3.93599e-05
3.958e-05
3.9681e-05
3.97259e-05
3.97548e-05
3.97549e-05
3.97292e-05
3.96808e-05
3.95545e-05
3.93581e-05
3.94331e-05
3.96215e-05
3.97294e-05
3.97894e-05
3.98151e-05
3.98171e-05
3.97893e-05
3.97257e-05
3.96198e-05
3.9433e-05
3.94657e-05
3.96513e-05
3.9755e-05
3.98172e-05
3.98538e-05
3.98537e-05
3.98149e-05
3.97546e-05
3.96512e-05
3.94656e-05
3.94656e-05
3.96513e-05
3.97547e-05
3.9815e-05
3.98537e-05
3.98536e-05
3.98148e-05
3.97546e-05
3.96512e-05
3.94656e-05
3.9433e-05
3.96198e-05
3.97257e-05
3.97893e-05
3.98171e-05
3.98171e-05
3.97892e-05
3.97257e-05
3.96198e-05
3.9433e-05
3.93581e-05
3.95545e-05
3.96807e-05
3.97292e-05
3.97548e-05
3.97548e-05
3.97292e-05
3.96807e-05
3.95545e-05
3.93581e-05
3.92103e-05
3.94357e-05
3.95797e-05
3.96212e-05
3.96512e-05
3.96512e-05
3.96212e-05
3.95797e-05
3.94357e-05
3.92103e-05
3.89621e-05
3.92202e-05
3.93596e-05
3.9433e-05
3.94656e-05
3.94656e-05
3.9433e-05
3.93596e-05
3.92202e-05
3.89621e-05
3.82543e-05
3.86792e-05
3.89266e-05
3.90534e-05
3.91086e-05
3.91085e-05
3.90533e-05
3.89294e-05
3.86933e-05
3.82541e-05
3.86938e-05
3.90593e-05
3.92584e-05
3.93671e-05
3.9419e-05
3.9419e-05
3.937e-05
3.92954e-05
3.90587e-05
3.86788e-05
3.89298e-05
3.92959e-05
3.9467e-05
3.95443e-05
3.95917e-05
3.95921e-05
3.95494e-05
3.94666e-05
3.92579e-05
3.89262e-05
3.90535e-05
3.93703e-05
3.95497e-05
3.96492e-05
3.96924e-05
3.96955e-05
3.96489e-05
3.9544e-05
3.93667e-05
3.90532e-05
3.91085e-05
3.94191e-05
3.95922e-05
3.96956e-05
3.97555e-05
3.97554e-05
3.9692e-05
3.95915e-05
3.94188e-05
3.91085e-05
3.91085e-05
3.94189e-05
3.95916e-05
3.96923e-05
3.97554e-05
3.97553e-05
3.9692e-05
3.95915e-05
3.94188e-05
3.91085e-05
3.90532e-05
3.93668e-05
3.9544e-05
3.96489e-05
3.96956e-05
3.96955e-05
3.96489e-05
3.9544e-05
3.93667e-05
3.90532e-05
3.89262e-05
3.92579e-05
3.94666e-05
3.95494e-05
3.9592e-05
3.9592e-05
3.95494e-05
3.94666e-05
3.92579e-05
3.89262e-05
3.86789e-05
3.90587e-05
3.92954e-05
3.937e-05
3.94189e-05
3.94189e-05
3.93699e-05
3.92954e-05
3.90587e-05
3.86789e-05
3.82541e-05
3.86934e-05
3.89295e-05
3.90533e-05
3.91085e-05
3.91084e-05
3.90533e-05
3.89295e-05
3.86934e-05
3.82541e-05
3.75507e-05
3.81492e-05
3.84954e-05
3.86749e-05
3.87529e-05
3.87528e-05
3.8675e-05
3.85005e-05
3.81673e-05
3.75509e-05
3.81674e-05
3.86835e-05
3.89631e-05
3.91151e-05
3.91875e-05
3.91876e-05
3.912e-05
3.90102e-05
3.86832e-05
3.81493e-05
3.85008e-05
3.90105e-05
3.92526e-05
3.93636e-05
3.94291e-05
3.94298e-05
3.93704e-05
3.92523e-05
3.89628e-05
3.84954e-05
3.86752e-05
3.91204e-05
3.93707e-05
3.95091e-05
3.95701e-05
3.9574e-05
3.95089e-05
3.93634e-05
3.91149e-05
3.86749e-05
3.8753e-05
3.91878e-05
3.943e-05
3.95741e-05
3.96566e-05
3.96564e-05
3.95696e-05
3.94289e-05
3.91873e-05
3.8753e-05
3.87529e-05
3.91874e-05
3.94291e-05
3.95701e-05
3.96565e-05
3.96564e-05
3.95696e-05
3.94289e-05
3.91873e-05
3.8753e-05
3.86749e-05
3.91149e-05
3.93634e-05
3.95089e-05
3.95743e-05
3.95742e-05
3.95088e-05
3.93633e-05
3.91149e-05
3.86749e-05
3.84954e-05
3.89629e-05
3.92524e-05
3.93705e-05
3.94299e-05
3.94298e-05
3.93704e-05
3.92523e-05
3.89628e-05
3.84955e-05
3.81494e-05
3.86833e-05
3.90103e-05
3.91201e-05
3.91876e-05
3.91876e-05
3.91201e-05
3.90102e-05
3.86832e-05
3.81494e-05
3.75511e-05
3.81675e-05
3.85008e-05
3.86752e-05
3.8753e-05
3.87529e-05
3.86752e-05
3.85007e-05
3.81675e-05
3.75511e-05
3.68605e-05
3.76236e-05
3.8067e-05
3.82988e-05
3.83997e-05
3.83998e-05
3.82996e-05
3.80748e-05
3.76455e-05
3.6862e-05
3.76449e-05
3.83095e-05
3.86692e-05
3.88643e-05
3.89568e-05
3.89572e-05
3.88714e-05
3.87247e-05
3.83098e-05
3.76247e-05
3.80746e-05
3.87247e-05
3.9038e-05
3.91836e-05
3.92669e-05
3.92681e-05
3.9192e-05
3.90379e-05
3.86693e-05
3.80676e-05
3.82996e-05
3.88716e-05
3.91922e-05
3.9369e-05
3.94479e-05
3.94525e-05
3.93689e-05
3.91835e-05
3.88644e-05
3.82993e-05
3.83999e-05
3.89574e-05
3.92682e-05
3.94526e-05
3.95569e-05
3.95568e-05
3.94474e-05
3.92668e-05
3.89568e-05
3.84001e-05
3.84e-05
3.89569e-05
3.9267e-05
3.9448e-05
3.9557e-05
3.95568e-05
3.94474e-05
3.92668e-05
3.89568e-05
3.84001e-05
3.82992e-05
3.88644e-05
3.91836e-05
3.93691e-05
3.9453e-05
3.9453e-05
3.9369e-05
3.91836e-05
3.88644e-05
3.82994e-05
3.80676e-05
3.86694e-05
3.9038e-05
3.91922e-05
3.92683e-05
3.92682e-05
3.91921e-05
3.9038e-05
3.86694e-05
3.80678e-05
3.76248e-05
3.831e-05
3.87249e-05
3.88717e-05
3.89574e-05
3.89574e-05
3.88716e-05
3.87249e-05
3.831e-05
3.76249e-05
3.68624e-05
3.76459e-05
3.80752e-05
3.83e-05
3.84002e-05
3.84001e-05
3.82999e-05
3.80751e-05
3.76459e-05
3.68624e-05
3.61856e-05
3.71032e-05
3.76416e-05
3.79255e-05
3.80492e-05
3.80494e-05
3.7927e-05
3.76524e-05
3.71286e-05
3.61888e-05
3.71271e-05
3.79371e-05
3.83764e-05
3.86144e-05
3.87269e-05
3.87277e-05
3.86239e-05
3.84392e-05
3.79384e-05
3.71054e-05
3.76517e-05
3.84386e-05
3.8823e-05
3.90039e-05
3.91049e-05
3.91066e-05
3.9014e-05
3.88234e-05
3.83772e-05
3.76431e-05
3.79269e-05
3.86239e-05
3.90139e-05
3.92289e-05
3.93256e-05
3.93308e-05
3.9229e-05
3.90043e-05
3.86149e-05
3.79265e-05
3.80495e-05
3.87278e-05
3.91067e-05
3.93309e-05
3.94564e-05
3.94564e-05
3.93251e-05
3.9105e-05
3.87272e-05
3.80499e-05
3.80496e-05
3.87272e-05
3.91052e-05
3.93258e-05
3.94566e-05
3.94565e-05
3.93252e-05
3.9105e-05
3.87272e-05
3.80499e-05
3.79262e-05
3.86149e-05
3.90043e-05
3.92293e-05
3.93316e-05
3.93316e-05
3.92292e-05
3.90043e-05
3.8615e-05
3.79265e-05
3.7643e-05
3.83773e-05
3.88235e-05
3.90142e-05
3.9107e-05
3.91069e-05
3.90142e-05
3.88235e-05
3.83774e-05
3.76433e-05
3.71055e-05
3.79385e-05
3.84394e-05
3.86243e-05
3.87281e-05
3.87281e-05
3.86242e-05
3.84394e-05
3.79386e-05
3.71057e-05
3.61891e-05
3.7129e-05
3.76528e-05
3.79275e-05
3.805e-05
3.805e-05
3.79275e-05
3.76528e-05
3.71291e-05
3.61894e-05
3.55233e-05
3.65866e-05
3.72179e-05
3.75533e-05
3.76999e-05
3.77002e-05
3.75556e-05
3.72312e-05
3.66146e-05
3.55271e-05
3.66124e-05
3.75651e-05
3.80839e-05
3.83648e-05
3.84971e-05
3.84984e-05
3.83767e-05
3.81527e-05
3.75672e-05
3.65894e-05
3.723e-05
3.81515e-05
3.86072e-05
3.88243e-05
3.89429e-05
3.8945e-05
3.88359e-05
3.86081e-05
3.80853e-05
3.72199e-05
3.75552e-05
3.83763e-05
3.88355e-05
3.90885e-05
3.9203e-05
3.92088e-05
3.90888e-05
3.8825e-05
3.83657e-05
3.75546e-05
3.77003e-05
3.84985e-05
3.8945e-05
3.92088e-05
3.9355e-05
3.9355e-05
3.92026e-05
3.89431e-05
3.84976e-05
3.77007e-05
3.77004e-05
3.84976e-05
3.89433e-05
3.92034e-05
3.93553e-05
3.93553e-05
3.92027e-05
3.89431e-05
3.84977e-05
3.77008e-05
3.75543e-05
3.83657e-05
3.88251e-05
3.90892e-05
3.92099e-05
3.92099e-05
3.90891e-05
3.88251e-05
3.83658e-05
3.75547e-05
3.72198e-05
3.80854e-05
3.86083e-05
3.88362e-05
3.89456e-05
3.89456e-05
3.88362e-05
3.86083e-05
3.80855e-05
3.72201e-05
3.65895e-05
3.75675e-05
3.8153e-05
3.83771e-05
3.8499e-05
3.8499e-05
3.8377e-05
3.8153e-05
3.75675e-05
3.65898e-05
3.55276e-05
3.66151e-05
3.72318e-05
3.75562e-05
3.7701e-05
3.77009e-05
3.75562e-05
3.72318e-05
3.66151e-05
3.55279e-05
3.48737e-05
3.60734e-05
3.67947e-05
3.71812e-05
3.73507e-05
3.73512e-05
3.71844e-05
3.68105e-05
3.61036e-05
3.48779e-05
3.61009e-05
3.7193e-05
3.77909e-05
3.8115e-05
3.82672e-05
3.82689e-05
3.81292e-05
3.78648e-05
3.71959e-05
3.60766e-05
3.68089e-05
3.7863e-05
3.83904e-05
3.86444e-05
3.87805e-05
3.87831e-05
3.86574e-05
3.83919e-05
3.77931e-05
3.6797e-05
3.71836e-05
3.81285e-05
3.86567e-05
3.89476e-05
3.908e-05
3.90863e-05
3.89482e-05
3.86455e-05
3.81163e-05
3.71826e-05
3.73511e-05
3.82689e-05
3.87831e-05
3.90862e-05
3.92527e-05
3.92529e-05
3.90797e-05
3.87809e-05
3.82678e-05
3.73515e-05
3.73512e-05
3.82678e-05
3.87812e-05
3.90806e-05
3.92532e-05
3.92532e-05
3.90798e-05
3.87809e-05
3.82678e-05
3.73516e-05
3.71825e-05
3.81163e-05
3.86456e-05
3.89486e-05
3.90877e-05
3.90877e-05
3.89485e-05
3.86456e-05
3.81164e-05
3.71827e-05
3.6797e-05
3.77932e-05
3.83921e-05
3.86578e-05
3.8784e-05
3.8784e-05
3.86577e-05
3.8392e-05
3.77932e-05
3.67972e-05
3.60768e-05
3.71962e-05
3.78651e-05
3.81296e-05
3.82696e-05
3.82696e-05
3.81296e-05
3.7865e-05
3.71962e-05
3.60769e-05
3.48783e-05
3.61039e-05
3.6811e-05
3.71849e-05
3.73519e-05
3.73519e-05
3.71848e-05
3.68109e-05
3.61039e-05
3.48784e-05
3.42415e-05
3.55653e-05
3.63726e-05
3.68092e-05
3.70014e-05
3.70021e-05
3.68132e-05
3.63906e-05
3.5597e-05
3.42457e-05
3.55939e-05
3.68209e-05
3.74976e-05
3.78648e-05
3.80368e-05
3.80391e-05
3.78813e-05
3.75755e-05
3.68245e-05
3.55686e-05
3.63886e-05
3.75731e-05
3.81726e-05
3.84642e-05
3.86179e-05
3.8621e-05
3.84785e-05
3.81746e-05
3.75003e-05
3.63751e-05
3.68122e-05
3.78801e-05
3.84774e-05
3.88064e-05
3.89566e-05
3.89633e-05
3.88072e-05
3.84656e-05
3.78665e-05
3.68107e-05
3.70018e-05
3.80389e-05
3.86208e-05
3.89631e-05
3.91496e-05
3.91499e-05
3.89564e-05
3.86183e-05
3.80375e-05
3.70022e-05
3.70019e-05
3.80375e-05
3.86186e-05
3.89574e-05
3.91503e-05
3.91503e-05
3.89565e-05
3.86184e-05
3.80376e-05
3.70022e-05
3.68106e-05
3.78665e-05
3.84657e-05
3.88077e-05
3.8965e-05
3.8965e-05
3.88076e-05
3.84657e-05
3.78666e-05
3.68108e-05
3.63751e-05
3.75004e-05
3.81748e-05
3.84789e-05
3.86221e-05
3.8622e-05
3.84789e-05
3.81748e-05
3.75004e-05
3.63752e-05
3.55688e-05
3.68247e-05
3.75758e-05
3.78817e-05
3.80399e-05
3.80399e-05
3.78816e-05
3.75757e-05
3.68246e-05
3.55688e-05
3.4246e-05
3.55971e-05
3.63909e-05
3.68136e-05
3.70027e-05
3.70027e-05
3.68136e-05
3.63909e-05
3.55971e-05
3.42459e-05
3.36368e-05
3.50655e-05
3.59532e-05
3.64384e-05
3.66529e-05
3.66538e-05
3.64431e-05
3.59731e-05
3.5098e-05
3.36405e-05
3.50948e-05
3.64498e-05
3.72042e-05
3.76145e-05
3.78062e-05
3.7809e-05
3.7633e-05
3.72854e-05
3.64538e-05
3.50685e-05
3.59708e-05
3.72825e-05
3.79541e-05
3.82836e-05
3.84549e-05
3.84585e-05
3.82992e-05
3.79565e-05
3.72073e-05
3.59556e-05
3.64417e-05
3.76315e-05
3.82978e-05
3.86647e-05
3.88329e-05
3.88399e-05
3.86658e-05
3.82853e-05
3.76164e-05
3.64397e-05
3.66532e-05
3.78086e-05
3.84582e-05
3.88396e-05
3.90458e-05
3.90461e-05
3.88327e-05
3.84555e-05
3.78069e-05
3.66535e-05
3.66532e-05
3.78069e-05
3.84558e-05
3.88337e-05
3.90466e-05
3.90467e-05
3.88328e-05
3.84555e-05
3.7807e-05
3.66535e-05
3.64396e-05
3.76164e-05
3.82855e-05
3.86664e-05
3.88418e-05
3.88418e-05
3.86663e-05
3.82855e-05
3.76165e-05
3.64398e-05
3.59555e-05
3.72074e-05
3.79567e-05
3.82996e-05
3.84598e-05
3.84597e-05
3.82996e-05
3.79567e-05
3.72074e-05
3.59556e-05
3.50685e-05
3.64539e-05
3.72855e-05
3.76333e-05
3.78098e-05
3.78098e-05
3.76332e-05
3.72855e-05
3.64538e-05
3.50685e-05
3.36403e-05
3.50978e-05
3.59731e-05
3.64433e-05
3.66542e-05
3.66542e-05
3.64433e-05
3.59731e-05
3.50978e-05
3.36403e-05
3.30726e-05
3.45778e-05
3.55384e-05
3.60698e-05
3.6306e-05
3.6307e-05
3.60754e-05
3.55599e-05
3.46109e-05
3.30756e-05
3.46079e-05
3.6081e-05
3.69112e-05
3.73642e-05
3.75756e-05
3.75787e-05
3.73845e-05
3.69949e-05
3.6085e-05
3.45804e-05
3.55575e-05
3.69917e-05
3.77351e-05
3.81029e-05
3.82918e-05
3.82958e-05
3.81196e-05
3.77379e-05
3.69145e-05
3.55406e-05
3.60737e-05
3.73827e-05
3.81179e-05
3.85228e-05
3.87088e-05
3.87162e-05
3.85241e-05
3.81048e-05
3.73662e-05
3.60711e-05
3.63063e-05
3.75782e-05
3.82954e-05
3.87157e-05
3.89413e-05
3.89417e-05
3.87086e-05
3.82923e-05
3.75762e-05
3.63063e-05
3.63061e-05
3.75762e-05
3.82927e-05
3.87097e-05
3.89423e-05
3.89423e-05
3.87088e-05
3.82924e-05
3.75762e-05
3.63063e-05
3.60709e-05
3.73662e-05
3.81049e-05
3.85247e-05
3.87182e-05
3.87183e-05
3.85246e-05
3.81049e-05
3.73662e-05
3.6071e-05
3.55404e-05
3.69145e-05
3.77379e-05
3.81199e-05
3.82972e-05
3.82972e-05
3.81199e-05
3.77379e-05
3.69145e-05
3.55405e-05
3.45802e-05
3.60848e-05
3.69948e-05
3.73846e-05
3.75795e-05
3.75795e-05
3.73846e-05
3.69948e-05
3.60849e-05
3.45802e-05
3.30749e-05
3.46103e-05
3.55595e-05
3.60752e-05
3.63072e-05
3.63072e-05
3.60752e-05
3.55596e-05
3.46104e-05
3.3075e-05
3.25719e-05
3.41082e-05
3.51306e-05
3.5705e-05
3.59618e-05
3.5963e-05
3.57112e-05
3.51532e-05
3.41412e-05
3.25736e-05
3.41388e-05
3.57156e-05
3.66191e-05
3.71142e-05
3.73449e-05
3.73485e-05
3.71361e-05
3.67046e-05
3.57194e-05
3.411e-05
3.51509e-05
3.67014e-05
3.75158e-05
3.79221e-05
3.81285e-05
3.81329e-05
3.79396e-05
3.75187e-05
3.66223e-05
3.51324e-05
3.57094e-05
3.71341e-05
3.79378e-05
3.83807e-05
3.85845e-05
3.8592e-05
3.83821e-05
3.79241e-05
3.71162e-05
3.5706e-05
3.59621e-05
3.73478e-05
3.81324e-05
3.85915e-05
3.88362e-05
3.88367e-05
3.85842e-05
3.8129e-05
3.73454e-05
3.59619e-05
3.59618e-05
3.73455e-05
3.81294e-05
3.85854e-05
3.88372e-05
3.88373e-05
3.85844e-05
3.8129e-05
3.73454e-05
3.59619e-05
3.57058e-05
3.71161e-05
3.79242e-05
3.83827e-05
3.85943e-05
3.85943e-05
3.83826e-05
3.79242e-05
3.71162e-05
3.57059e-05
3.51321e-05
3.66222e-05
3.75187e-05
3.79399e-05
3.81344e-05
3.81344e-05
3.79399e-05
3.75187e-05
3.66222e-05
3.51321e-05
3.41097e-05
3.57191e-05
3.67043e-05
3.71361e-05
3.73493e-05
3.73493e-05
3.71361e-05
3.67043e-05
3.57191e-05
3.41097e-05
3.25728e-05
3.41405e-05
3.51527e-05
3.57108e-05
3.5963e-05
3.5963e-05
3.57108e-05
3.51527e-05
3.41405e-05
3.25729e-05
3.21671e-05
3.36648e-05
3.47327e-05
3.53457e-05
3.56218e-05
3.56231e-05
3.53524e-05
3.47563e-05
3.36974e-05
3.21674e-05
3.36962e-05
3.53557e-05
3.63285e-05
3.68648e-05
3.71146e-05
3.71186e-05
3.68879e-05
3.64151e-05
3.53587e-05
3.36658e-05
3.47546e-05
3.64123e-05
3.72966e-05
3.77413e-05
3.79652e-05
3.79699e-05
3.77595e-05
3.72993e-05
3.63314e-05
3.47341e-05
3.53509e-05
3.68861e-05
3.77577e-05
3.82385e-05
3.84598e-05
3.84675e-05
3.82398e-05
3.77432e-05
3.68667e-05
3.53465e-05
3.56223e-05
3.71179e-05
3.79694e-05
3.84671e-05
3.87306e-05
3.8731e-05
3.84594e-05
3.79655e-05
3.71149e-05
3.56217e-05
3.56217e-05
3.71152e-05
3.79661e-05
3.84608e-05
3.87316e-05
3.87317e-05
3.84596e-05
3.79655e-05
3.71148e-05
3.56216e-05
3.53464e-05
3.68666e-05
3.77433e-05
3.82404e-05
3.84699e-05
3.84699e-05
3.82403e-05
3.77433e-05
3.68666e-05
3.53463e-05
3.47339e-05
3.63312e-05
3.72993e-05
3.77597e-05
3.79715e-05
3.79715e-05
3.77597e-05
3.72992e-05
3.63311e-05
3.47337e-05
3.36654e-05
3.53583e-05
3.64147e-05
3.68878e-05
3.71194e-05
3.71194e-05
3.68879e-05
3.64147e-05
3.53582e-05
3.36652e-05
3.21665e-05
3.36966e-05
3.47556e-05
3.53518e-05
3.56229e-05
3.56229e-05
3.53519e-05
3.47556e-05
3.36966e-05
3.21665e-05
3.19192e-05
3.32613e-05
3.43492e-05
3.4994e-05
3.52874e-05
3.52888e-05
3.50011e-05
3.43732e-05
3.32931e-05
3.19175e-05
3.32932e-05
3.50032e-05
3.60399e-05
3.66162e-05
3.68847e-05
3.6889e-05
3.66403e-05
3.61271e-05
3.50052e-05
3.32611e-05
3.43723e-05
3.61248e-05
3.70775e-05
3.75605e-05
3.78018e-05
3.78067e-05
3.75791e-05
3.70799e-05
3.60422e-05
3.43499e-05
3.5e-05
3.66387e-05
3.75775e-05
3.8096e-05
3.8335e-05
3.83427e-05
3.80972e-05
3.75622e-05
3.66178e-05
3.49944e-05
3.52882e-05
3.68884e-05
3.78063e-05
3.83423e-05
3.86244e-05
3.86248e-05
3.83344e-05
3.78019e-05
3.68848e-05
3.5287e-05
3.52874e-05
3.68853e-05
3.78026e-05
3.83359e-05
3.86255e-05
3.86255e-05
3.83346e-05
3.78019e-05
3.68847e-05
3.5287e-05
3.49946e-05
3.66179e-05
3.75624e-05
3.80979e-05
3.83452e-05
3.83452e-05
3.80978e-05
3.75623e-05
3.66177e-05
3.49942e-05
3.43498e-05
3.60421e-05
3.70798e-05
3.75794e-05
3.78084e-05
3.78084e-05
3.75794e-05
3.70798e-05
3.60419e-05
3.43495e-05
3.32608e-05
3.50048e-05
3.61267e-05
3.66402e-05
3.68898e-05
3.68898e-05
3.66402e-05
3.61266e-05
3.50046e-05
3.32604e-05
3.19167e-05
3.32924e-05
3.43725e-05
3.50004e-05
3.52885e-05
3.52885e-05
3.50004e-05
3.43725e-05
3.32923e-05
3.19167e-05
3.19095e-05
3.29183e-05
3.39864e-05
3.46531e-05
3.49609e-05
3.49624e-05
3.46604e-05
3.40107e-05
3.29489e-05
3.19055e-05
3.29507e-05
3.46618e-05
3.57542e-05
3.63689e-05
3.66555e-05
3.66601e-05
3.63937e-05
3.58415e-05
3.46624e-05
3.29166e-05
3.40108e-05
3.58402e-05
3.68589e-05
3.73799e-05
3.76383e-05
3.76435e-05
3.73987e-05
3.68606e-05
3.57557e-05
3.39864e-05
3.466e-05
3.63926e-05
3.73975e-05
3.79535e-05
3.82098e-05
3.82176e-05
3.79545e-05
3.73812e-05
3.63701e-05
3.46531e-05
3.4962e-05
3.66598e-05
3.76432e-05
3.82173e-05
3.85178e-05
3.8518e-05
3.8209e-05
3.76382e-05
3.66553e-05
3.49603e-05
3.4961e-05
3.66561e-05
3.76392e-05
3.82107e-05
3.85188e-05
3.85187e-05
3.82092e-05
3.76382e-05
3.66553e-05
3.49603e-05
3.46534e-05
3.63702e-05
3.73815e-05
3.79552e-05
3.82202e-05
3.82202e-05
3.7955e-05
3.73813e-05
3.63699e-05
3.46529e-05
3.39863e-05
3.57557e-05
3.68606e-05
3.7399e-05
3.76452e-05
3.76452e-05
3.7399e-05
3.68605e-05
3.57554e-05
3.39859e-05
3.29163e-05
3.4662e-05
3.58411e-05
3.63935e-05
3.66609e-05
3.66609e-05
3.63935e-05
3.5841e-05
3.46618e-05
3.29159e-05
3.19046e-05
3.29482e-05
3.40099e-05
3.46596e-05
3.49619e-05
3.4962e-05
3.46597e-05
3.40099e-05
3.29482e-05
3.19047e-05
3.22863e-05
3.26701e-05
3.36549e-05
3.43274e-05
3.46453e-05
3.46468e-05
3.43348e-05
3.36791e-05
3.26993e-05
3.22799e-05
3.27027e-05
3.43364e-05
3.54726e-05
3.61231e-05
3.64273e-05
3.6432e-05
3.61484e-05
3.55595e-05
3.43354e-05
3.26666e-05
3.36804e-05
3.55593e-05
3.66408e-05
3.71994e-05
3.74749e-05
3.74802e-05
3.72183e-05
3.66418e-05
3.54731e-05
3.36539e-05
3.43351e-05
3.61479e-05
3.72175e-05
3.78109e-05
3.80845e-05
3.80922e-05
3.78115e-05
3.72003e-05
3.61238e-05
3.4327e-05
3.46469e-05
3.6432e-05
3.74801e-05
3.80921e-05
3.84106e-05
3.84107e-05
3.80834e-05
3.74744e-05
3.64268e-05
3.46446e-05
3.46455e-05
3.64279e-05
3.74757e-05
3.80853e-05
3.84116e-05
3.84115e-05
3.80836e-05
3.74744e-05
3.64268e-05
3.46445e-05
3.43274e-05
3.61241e-05
3.72006e-05
3.78123e-05
3.80949e-05
3.80948e-05
3.7812e-05
3.72003e-05
3.61237e-05
3.43268e-05
3.3654e-05
3.54731e-05
3.66418e-05
3.72186e-05
3.7482e-05
3.7482e-05
3.72186e-05
3.66417e-05
3.54728e-05
3.36535e-05
3.26664e-05
3.43352e-05
3.55591e-05
3.61482e-05
3.6433e-05
3.6433e-05
3.61482e-05
3.55591e-05
3.4335e-05
3.26659e-05
3.22787e-05
3.26985e-05
3.36784e-05
3.43341e-05
3.46464e-05
3.46464e-05
3.43342e-05
3.36784e-05
3.26986e-05
3.22787e-05
3.32097e-05
3.25698e-05
3.33709e-05
3.40243e-05
3.43455e-05
3.4347e-05
3.40318e-05
3.3395e-05
3.25974e-05
3.31999e-05
3.26025e-05
3.40351e-05
3.51965e-05
3.58793e-05
3.62003e-05
3.62052e-05
3.59049e-05
3.52828e-05
3.40326e-05
3.25641e-05
3.33972e-05
3.52837e-05
3.64235e-05
3.7019e-05
3.73116e-05
3.73169e-05
3.70379e-05
3.64236e-05
3.51959e-05
3.33689e-05
3.40327e-05
3.59051e-05
3.70377e-05
3.76681e-05
3.79589e-05
3.79666e-05
3.76683e-05
3.70194e-05
3.58795e-05
3.40235e-05
3.43473e-05
3.62054e-05
3.73171e-05
3.79666e-05
3.8303e-05
3.8303e-05
3.79574e-05
3.73107e-05
3.61995e-05
3.43446e-05
3.43457e-05
3.62009e-05
3.73123e-05
3.79596e-05
3.83039e-05
3.83037e-05
3.79577e-05
3.73107e-05
3.61995e-05
3.43446e-05
3.4024e-05
3.58799e-05
3.70199e-05
3.76692e-05
3.79693e-05
3.79692e-05
3.76689e-05
3.70195e-05
3.58794e-05
3.40234e-05
3.3369e-05
3.5196e-05
3.64237e-05
3.70383e-05
3.73188e-05
3.73188e-05
3.70382e-05
3.64236e-05
3.51957e-05
3.33686e-05
3.25642e-05
3.40324e-05
3.52825e-05
3.59049e-05
3.62062e-05
3.62062e-05
3.59049e-05
3.52825e-05
3.40323e-05
3.25635e-05
3.31983e-05
3.25963e-05
3.33942e-05
3.40312e-05
3.43467e-05
3.43467e-05
3.40312e-05
3.33943e-05
3.25965e-05
3.31977e-05
3.49279e-05
3.26905e-05
3.31595e-05
3.3755e-05
3.40688e-05
3.40704e-05
3.37626e-05
3.31832e-05
3.27162e-05
3.49136e-05
3.27231e-05
3.37716e-05
3.49287e-05
3.56384e-05
3.59749e-05
3.59799e-05
3.56642e-05
3.50142e-05
3.37675e-05
3.26823e-05
3.31865e-05
3.50165e-05
3.62076e-05
3.68391e-05
3.71483e-05
3.71537e-05
3.68576e-05
3.62066e-05
3.49271e-05
3.31562e-05
3.37641e-05
3.56652e-05
3.68582e-05
3.75254e-05
3.78331e-05
3.78406e-05
3.7525e-05
3.68388e-05
3.5638e-05
3.37537e-05
3.40711e-05
3.59806e-05
3.71541e-05
3.78409e-05
3.8195e-05
3.81948e-05
3.78313e-05
3.7147e-05
3.59739e-05
3.40679e-05
3.40691e-05
3.59756e-05
3.71489e-05
3.78337e-05
3.81958e-05
3.81955e-05
3.78315e-05
3.71471e-05
3.59739e-05
3.40678e-05
3.37543e-05
3.56385e-05
3.68393e-05
3.7526e-05
3.78434e-05
3.78433e-05
3.75256e-05
3.68389e-05
3.5638e-05
3.37536e-05
3.31565e-05
3.49272e-05
3.62068e-05
3.68581e-05
3.71556e-05
3.71556e-05
3.68581e-05
3.62066e-05
3.49269e-05
3.3156e-05
3.26824e-05
3.37674e-05
3.50141e-05
3.56642e-05
3.59811e-05
3.59811e-05
3.56643e-05
3.5014e-05
3.37673e-05
3.26816e-05
3.49117e-05
3.27147e-05
3.31823e-05
3.37619e-05
3.40701e-05
3.40701e-05
3.3762e-05
3.31824e-05
3.27148e-05
3.49104e-05
3.75784e-05
3.31392e-05
3.30581e-05
3.35362e-05
3.38263e-05
3.38279e-05
3.35438e-05
3.30813e-05
3.31629e-05
3.75591e-05
3.31725e-05
3.35649e-05
3.46732e-05
3.54015e-05
3.57518e-05
3.57569e-05
3.54273e-05
3.47577e-05
3.35592e-05
3.31282e-05
3.30857e-05
3.47613e-05
3.59933e-05
3.66594e-05
3.69852e-05
3.69905e-05
3.66777e-05
3.59913e-05
3.46704e-05
3.30534e-05
3.35458e-05
3.54292e-05
3.6679e-05
3.73825e-05
3.77071e-05
3.77145e-05
3.73815e-05
3.66585e-05
3.54005e-05
3.35343e-05
3.38289e-05
3.57579e-05
3.69913e-05
3.7715e-05
3.80866e-05
3.80862e-05
3.77049e-05
3.69834e-05
3.57505e-05
3.38252e-05
3.38267e-05
3.57524e-05
3.69857e-05
3.77076e-05
3.80872e-05
3.80868e-05
3.7705e-05
3.69835e-05
3.57505e-05
3.38251e-05
3.35351e-05
3.54012e-05
3.66591e-05
3.73826e-05
3.77172e-05
3.77171e-05
3.73821e-05
3.66586e-05
3.54006e-05
3.35342e-05
3.30539e-05
3.46707e-05
3.59916e-05
3.66783e-05
3.69925e-05
3.69925e-05
3.66782e-05
3.59914e-05
3.46704e-05
3.30532e-05
3.31283e-05
3.35594e-05
3.47578e-05
3.54276e-05
3.57583e-05
3.57583e-05
3.54276e-05
3.47577e-05
3.35591e-05
3.31272e-05
3.7555e-05
3.31605e-05
3.30802e-05
3.35431e-05
3.38277e-05
3.38277e-05
3.35431e-05
3.30802e-05
3.31608e-05
3.75542e-05
4.1489e-05
3.40427e-05
3.31207e-05
3.33947e-05
3.36366e-05
3.36382e-05
3.34021e-05
3.31429e-05
3.40639e-05
4.14754e-05
3.40764e-05
3.34463e-05
3.44366e-05
3.51707e-05
3.5532e-05
3.55371e-05
3.51964e-05
3.452e-05
3.3439e-05
3.40288e-05
3.31486e-05
3.45249e-05
3.57819e-05
3.64805e-05
3.68223e-05
3.68276e-05
3.64983e-05
3.57787e-05
3.44326e-05
3.3114e-05
3.34047e-05
3.51992e-05
3.65004e-05
3.72396e-05
3.7581e-05
3.75882e-05
3.7238e-05
3.64787e-05
3.5169e-05
3.33919e-05
3.36393e-05
3.55385e-05
3.68286e-05
3.7589e-05
3.79778e-05
3.79772e-05
3.75782e-05
3.682e-05
3.55303e-05
3.3635e-05
3.36367e-05
3.55325e-05
3.68226e-05
3.75812e-05
3.79783e-05
3.79777e-05
3.75784e-05
3.682e-05
3.55303e-05
3.36349e-05
3.33927e-05
3.51698e-05
3.64795e-05
3.72392e-05
3.75908e-05
3.75907e-05
3.72386e-05
3.64788e-05
3.51691e-05
3.33918e-05
3.31144e-05
3.4433e-05
3.5779e-05
3.64989e-05
3.68296e-05
3.68295e-05
3.64988e-05
3.57787e-05
3.44326e-05
3.31138e-05
3.40281e-05
3.34392e-05
3.45202e-05
3.51968e-05
3.55386e-05
3.55386e-05
3.51968e-05
3.45201e-05
3.34388e-05
3.40273e-05
4.14698e-05
3.40608e-05
3.31414e-05
3.34013e-05
3.36378e-05
3.36378e-05
3.34012e-05
3.31412e-05
3.40612e-05
4.14709e-05
4.66342e-05
3.55783e-05
3.343e-05
3.33677e-05
3.35245e-05
3.3526e-05
3.33748e-05
3.34512e-05
3.55971e-05
4.66141e-05
3.5614e-05
3.34573e-05
3.42281e-05
3.49486e-05
3.53167e-05
3.53218e-05
3.49742e-05
3.43106e-05
3.34484e-05
3.55614e-05
3.34587e-05
3.43166e-05
3.5574e-05
3.63022e-05
3.66596e-05
3.66648e-05
3.63196e-05
3.55698e-05
3.42231e-05
3.34211e-05
3.3378e-05
3.49777e-05
3.63224e-05
3.70966e-05
3.74547e-05
3.74616e-05
3.70944e-05
3.62997e-05
3.49464e-05
3.33635e-05
3.35271e-05
3.53235e-05
3.66661e-05
3.74626e-05
3.78687e-05
3.78678e-05
3.74514e-05
3.66568e-05
3.53148e-05
3.35221e-05
3.35242e-05
3.53171e-05
3.66596e-05
3.74546e-05
3.78689e-05
3.78682e-05
3.74515e-05
3.66568e-05
3.53148e-05
3.35221e-05
3.33646e-05
3.49471e-05
3.63005e-05
3.70957e-05
3.74642e-05
3.7464e-05
3.7095e-05
3.62998e-05
3.49465e-05
3.33635e-05
3.34217e-05
3.42235e-05
3.55701e-05
3.63202e-05
3.66668e-05
3.66668e-05
3.63201e-05
3.557e-05
3.42232e-05
3.34207e-05
3.55603e-05
3.34485e-05
3.43108e-05
3.49747e-05
3.53235e-05
3.53236e-05
3.49748e-05
3.43108e-05
3.34482e-05
3.55584e-05
4.6608e-05
3.55929e-05
3.34487e-05
3.33734e-05
3.35252e-05
3.35252e-05
3.33733e-05
3.34485e-05
3.55929e-05
4.66076e-05
5.27069e-05
3.79035e-05
3.40743e-05
3.35099e-05
3.35279e-05
3.35292e-05
3.35165e-05
3.40942e-05
3.7921e-05
5.26802e-05
3.79412e-05
3.36642e-05
3.40646e-05
3.47408e-05
3.5109e-05
3.51141e-05
3.4766e-05
3.41457e-05
3.36531e-05
3.7885e-05
3.41038e-05
3.41531e-05
3.53725e-05
3.61253e-05
3.64975e-05
3.65025e-05
3.61421e-05
3.53671e-05
3.4058e-05
3.40633e-05
3.35205e-05
3.47702e-05
3.61457e-05
3.69538e-05
3.73282e-05
3.73349e-05
3.69509e-05
3.61218e-05
3.47375e-05
3.35041e-05
3.35303e-05
3.51159e-05
3.65041e-05
3.73362e-05
3.77591e-05
3.7758e-05
3.73244e-05
3.6494e-05
3.51064e-05
3.35244e-05
3.35269e-05
3.5109e-05
3.64971e-05
3.73279e-05
3.77592e-05
3.77583e-05
3.73245e-05
3.6494e-05
3.51064e-05
3.35244e-05
3.35055e-05
3.47381e-05
3.61227e-05
3.69521e-05
3.73374e-05
3.73371e-05
3.69514e-05
3.61219e-05
3.47376e-05
3.35041e-05
3.40646e-05
3.40582e-05
3.53673e-05
3.61426e-05
3.65044e-05
3.65044e-05
3.61426e-05
3.53672e-05
3.40581e-05
3.40628e-05
3.78858e-05
3.3653e-05
3.41456e-05
3.47663e-05
3.51156e-05
3.51156e-05
3.47664e-05
3.41457e-05
3.36525e-05
3.78813e-05
5.26789e-05
3.79188e-05
3.40918e-05
3.35146e-05
3.35278e-05
3.35278e-05
3.35142e-05
3.40906e-05
3.79158e-05
5.26725e-05
5.94518e-05
4.10006e-05
3.5176e-05
3.3892e-05
3.37034e-05
3.37046e-05
3.38987e-05
3.51963e-05
4.10205e-05
5.94243e-05
4.10438e-05
3.41227e-05
3.39647e-05
3.45538e-05
3.49123e-05
3.49174e-05
3.45787e-05
3.40446e-05
3.41097e-05
4.09838e-05
3.52084e-05
3.40531e-05
3.51797e-05
3.595e-05
3.63358e-05
3.63408e-05
3.59663e-05
3.51732e-05
3.39566e-05
3.51649e-05
3.39037e-05
3.45834e-05
3.59705e-05
3.6811e-05
3.72016e-05
3.72081e-05
3.68075e-05
3.59456e-05
3.45494e-05
3.38853e-05
3.37059e-05
3.49192e-05
3.63425e-05
3.72095e-05
3.76493e-05
3.76479e-05
3.71972e-05
3.63317e-05
3.4909e-05
3.36989e-05
3.37019e-05
3.49119e-05
3.63351e-05
3.7201e-05
3.76491e-05
3.76481e-05
3.71973e-05
3.63317e-05
3.4909e-05
3.36989e-05
3.38872e-05
3.45501e-05
3.59465e-05
3.68087e-05
3.72104e-05
3.72101e-05
3.68079e-05
3.59457e-05
3.45495e-05
3.38853e-05
3.51667e-05
3.39568e-05
3.51733e-05
3.59667e-05
3.63425e-05
3.63424e-05
3.59667e-05
3.51733e-05
3.39566e-05
3.51642e-05
4.0985e-05
3.41095e-05
3.40443e-05
3.45788e-05
3.49187e-05
3.49187e-05
3.45789e-05
3.40443e-05
3.41086e-05
4.09798e-05
5.94243e-05
4.1019e-05
3.51936e-05
3.38963e-05
3.37025e-05
3.37024e-05
3.38956e-05
3.51919e-05
4.10152e-05
5.94174e-05
6.66506e-05
4.53415e-05
3.68783e-05
3.46058e-05
3.41104e-05
3.41116e-05
3.46126e-05
3.68981e-05
4.53604e-05
6.66167e-05
4.53867e-05
3.4954e-05
3.39617e-05
3.43996e-05
3.47336e-05
3.47386e-05
3.44242e-05
3.40404e-05
3.49395e-05
4.53248e-05
3.69123e-05
3.40503e-05
3.50009e-05
3.57775e-05
3.61752e-05
3.618e-05
3.57932e-05
3.49932e-05
3.39521e-05
3.68673e-05
3.46184e-05
3.44295e-05
3.57982e-05
3.66685e-05
3.70749e-05
3.70811e-05
3.66643e-05
3.57721e-05
3.43939e-05
3.4599e-05
3.4113e-05
3.47404e-05
3.61819e-05
3.70828e-05
3.75391e-05
3.75375e-05
3.70699e-05
3.61702e-05
3.47291e-05
3.41056e-05
3.41086e-05
3.47327e-05
3.61741e-05
3.70739e-05
3.75386e-05
3.75375e-05
3.70699e-05
3.61702e-05
3.47291e-05
3.41056e-05
3.46005e-05
3.4395e-05
3.57732e-05
3.66655e-05
3.70832e-05
3.70829e-05
3.66645e-05
3.57721e-05
3.43939e-05
3.45992e-05
3.68685e-05
3.39524e-05
3.49933e-05
3.57935e-05
3.61814e-05
3.61814e-05
3.57934e-05
3.49931e-05
3.39519e-05
3.6867e-05
4.53253e-05
3.49395e-05
3.40399e-05
3.44238e-05
3.47393e-05
3.47393e-05
3.44239e-05
3.40397e-05
3.49381e-05
4.53215e-05
6.66171e-05
4.53606e-05
3.68963e-05
3.46105e-05
3.41095e-05
3.41092e-05
3.46093e-05
3.68938e-05
4.5356e-05
6.66111e-05
7.4094e-05
5.06388e-05
3.92475e-05
3.57585e-05
3.48482e-05
3.48495e-05
3.57654e-05
3.92662e-05
5.06519e-05
7.40548e-05
5.06852e-05
3.62661e-05
3.40935e-05
3.42932e-05
3.45817e-05
3.45867e-05
3.43176e-05
3.41715e-05
3.62498e-05
5.06194e-05
3.9285e-05
3.41825e-05
3.48424e-05
3.5609e-05
3.6016e-05
3.60207e-05
3.56243e-05
3.48338e-05
3.40828e-05
3.92368e-05
3.57736e-05
3.43233e-05
3.56297e-05
3.65262e-05
3.6948e-05
3.69541e-05
3.65214e-05
3.56028e-05
3.42864e-05
3.57519e-05
3.4852e-05
3.45884e-05
3.60226e-05
3.69559e-05
3.74286e-05