/*--------------------------------*- C++ -*----------------------------------*\
| =========                 |                                                 |
| \\      /  F ield         | OpenFOAM: The Open Source CFD Toolbox           |
|  \\    /   O peration     | Version:  2406                                  |
|   \\  /    A nd           | Website:  www.openfoam.com                      |
|    \\/     M anipulation  |                                                 |
\*---------------------------------------------------------------------------*/
FoamFile
{
    version     2.0;
    format      ascii;
    arch        "LSB;label=32;scalar=64";
    class       volScalarField;
    location    "100";
    object      p;
}
// * * * * * * * * * * * * * * * * * * * * * * * * * * * * * * * * * * * * * //

dimensions      [0 2 -2 0 0 0 0];

internalField   nonuniform List<scalar> 
25000
(
1.25549e-06
-0.000935811
-0.00165371
-0.00213997
-0.00239252
-0.00240964
-0.00219297
-0.00174392
-0.0010646
-0.000161994
-0.000960935
-0.00200941
-0.00280645
-0.00334516
-0.00362148
-0.00363551
-0.0033869
-0.00287473
-0.00210123
-0.00107094
-0.00168363
-0.00281928
-0.00367181
-0.00424411
-0.0045353
-0.00454592
-0.00427506
-0.003721
-0.00288383
-0.00175975
-0.00216709
-0.00336264
-0.00425175
-0.00484392
-0.00514307
-0.00515076
-0.00486624
-0.0042865
-0.0034078
-0.00222123
-0.00241622
-0.00363986
-0.00454637
-0.00514783
-0.00544991
-0.0054554
-0.00516351
-0.00457077
-0.00367112
-0.00245367
-0.00242968
-0.00365279
-0.00455847
-0.00515821
-0.00545866
-0.00546237
-0.0051691
-0.00457518
-0.0036746
-0.00245651
-0.00221051
-0.00340305
-0.00428781
-0.00487528
-0.00516895
-0.00517161
-0.00488263
-0.00429941
-0.00341813
-0.00222964
-0.00175921
-0.00288943
-0.0037336
-0.0042961
-0.00457757
-0.00457933
-0.00430126
-0.00374165
-0.00290028
-0.00177327
-0.00107834
-0.00211456
-0.00289551
-0.00341718
-0.00367824
-0.00367949
-0.00342113
-0.00290153
-0.00212277
-0.00108879
-0.000174339
-0.0010825
-0.00176984
-0.00222955
-0.00246015
-0.00246129
-0.00223282
-0.00177511
-0.00108959
-0.000182879
-0.0179399
-0.0177831
-0.0176611
-0.0175789
-0.0175372
-0.0175374
-0.0175802
-0.0176645
-0.0177838
-0.0179255
-0.0178004
-0.0176059
-0.0175171
-0.0174675
-0.0174457
-0.0174479
-0.0174731
-0.0175246
-0.0176086
-0.017789
-0.0176859
-0.0175304
-0.0174578
-0.0174243
-0.0174128
-0.0174152
-0.0174306
-0.0174643
-0.0175303
-0.0176753
-0.0176059
-0.0174875
-0.0174342
-0.017414
-0.0174092
-0.0174108
-0.0174177
-0.0174366
-0.0174845
-0.0175963
-0.017566
-0.0174702
-0.0174289
-0.0174168
-0.0174154
-0.0174158
-0.0174172
-0.0174274
-0.0174648
-0.017558
-0.0175668
-0.0174741
-0.0174355
-0.0174237
-0.0174218
-0.0174213
-0.0174218
-0.0174312
-0.017468
-0.0175608
-0.0176101
-0.0175008
-0.0174531
-0.0174343
-0.0174276
-0.0174266
-0.0174309
-0.0174478
-0.0174941
-0.0176048
-0.0176943
-0.0175526
-0.0174883
-0.0174552
-0.0174406
-0.0174393
-0.0174513
-0.0174822
-0.0175458
-0.0176893
-0.0178139
-0.0176364
-0.0175542
-0.0175036
-0.0174792
-0.0174777
-0.0174998
-0.0175481
-0.0176295
-0.0178081
-0.0179554
-0.017816
-0.0176983
-0.0176148
-0.017572
-0.0175706
-0.0176109
-0.0176925
-0.0178093
-0.0179489
-0.0371873
-0.0368868
-0.0366299
-0.0364446
-0.0363398
-0.0363263
-0.0364009
-0.0365546
-0.0367891
-0.0370773
-0.036884
-0.0365268
-0.0362469
-0.0360474
-0.0359416
-0.0359324
-0.0360186
-0.0361981
-0.0364567
-0.0367931
-0.0366268
-0.0362464
-0.0359514
-0.0357433
-0.0356348
-0.0356294
-0.0357273
-0.0359241
-0.0362007
-0.0365607
-0.0364453
-0.0360486
-0.0357447
-0.035533
-0.0354236
-0.0354204
-0.0355236
-0.035728
-0.0360211
-0.0364057
-0.0363457
-0.0359469
-0.0356387
-0.0354258
-0.0353162
-0.0353142
-0.0354199
-0.0356286
-0.0359313
-0.0363252
-0.0363358
-0.0359405
-0.0356359
-0.035425
-0.0353165
-0.0353152
-0.0354213
-0.0356299
-0.0359325
-0.0363262
-0.0364127
-0.0360289
-0.0357358
-0.03553
-0.0354242
-0.0354233
-0.0355276
-0.0357322
-0.0360248
-0.0364088
-0.0365675
-0.0362096
-0.0359338
-0.0357358
-0.0356341
-0.0356334
-0.0357338
-0.0359312
-0.0362073
-0.0365663
-0.0368027
-0.0364688
-0.0362111
-0.0360293
-0.0359374
-0.0359366
-0.0360274
-0.0362085
-0.0364668
-0.036802
-0.0370915
-0.0368055
-0.036571
-0.0364137
-0.0363312
-0.0363305
-0.0364118
-0.0365681
-0.0368029
-0.0370898
-0.0487487
-0.048578
-0.0484094
-0.0482925
-0.0482259
-0.0482102
-0.0482392
-0.0483059
-0.0484266
-0.04858
-0.048572
-0.0483873
-0.0482091
-0.0480815
-0.0480112
-0.0479962
-0.0480335
-0.0481238
-0.0482658
-0.0484308
-0.0484018
-0.0482046
-0.0480391
-0.0479157
-0.0478461
-0.047833
-0.0478768
-0.0479773
-0.048124
-0.0483093
-0.048288
-0.048076
-0.047913
-0.0477937
-0.0477278
-0.0477184
-0.0477666
-0.0478726
-0.0480288
-0.0482363
-0.0482249
-0.0480073
-0.0478423
-0.0477259
-0.0476638
-0.0476581
-0.0477105
-0.0478202
-0.0479812
-0.0481958
-0.0482111
-0.047993
-0.0478291
-0.0477152
-0.0476565
-0.0476539
-0.047708
-0.0478187
-0.0479801
-0.0481945
-0.0482411
-0.048031
-0.0478725
-0.0477624
-0.0477074
-0.0477064
-0.04776
-0.0478689
-0.0480257
-0.0482328
-0.0483074
-0.0481213
-0.0479727
-0.0478677
-0.0478159
-0.0478158
-0.0478675
-0.0479722
-0.0481201
-0.0483046
-0.048427
-0.0482624
-0.0481188
-0.0480227
-0.0479759
-0.0479761
-0.0480234
-0.0481193
-0.0482628
-0.048427
-0.0485791
-0.0484263
-0.0483027
-0.0482292
-0.0481895
-0.0481901
-0.0482304
-0.0483038
-0.0484271
-0.0485797
-0.0548059
-0.0547083
-0.0546156
-0.0545678
-0.0545459
-0.0545436
-0.0545589
-0.0545891
-0.0546546
-0.0547384
-0.0547007
-0.054594
-0.0544913
-0.0544266
-0.0543913
-0.0543848
-0.0544067
-0.0544585
-0.0545512
-0.0546536
-0.0546029
-0.0544831
-0.0543877
-0.0543173
-0.0542757
-0.0542667
-0.0542913
-0.0543528
-0.0544529
-0.0545815
-0.0545535
-0.0544134
-0.0543103
-0.0542352
-0.054193
-0.0541854
-0.0542137
-0.0542825
-0.0543922
-0.0545418
-0.0545302
-0.0543756
-0.0542636
-0.0541869
-0.0541465
-0.0541416
-0.0541739
-0.0542469
-0.0543599
-0.054517
-0.054526
-0.0543667
-0.0542513
-0.0541745
-0.0541363
-0.0541341
-0.0541683
-0.0542426
-0.0543565
-0.0545136
-0.0545401
-0.0543872
-0.0542734
-0.0541996
-0.0541645
-0.0541639
-0.0541979
-0.0542704
-0.0543818
-0.0545315
-0.0545687
-0.0544376
-0.0543331
-0.0542661
-0.0542347
-0.0542353
-0.0542672
-0.0543338
-0.0544365
-0.0545649
-0.0546324
-0.0545283
-0.0544319
-0.0543744
-0.0543466
-0.0543476
-0.0543772
-0.0544349
-0.0545303
-0.0546327
-0.0547144
-0.0546289
-0.0545591
-0.0545234
-0.0545036
-0.0545051
-0.0545273
-0.0545637
-0.0546331
-0.0547174
-0.058867
-0.0588458
-0.058838
-0.05886
-0.0588809
-0.0588929
-0.0588996
-0.0589011
-0.0589151
-0.0589304
-0.0588382
-0.058815
-0.0587994
-0.0588011
-0.0588038
-0.0588102
-0.0588219
-0.0588386
-0.0588744
-0.0589063
-0.0588221
-0.0587894
-0.0587673
-0.0587515
-0.0587419
-0.0587432
-0.0587559
-0.0587814
-0.0588262
-0.0588787
-0.0588371
-0.0587832
-0.0587422
-0.0587118
-0.0586955
-0.0586949
-0.0587102
-0.058744
-0.0587984
-0.0588662
-0.0588503
-0.0587793
-0.0587249
-0.0586872
-0.0586679
-0.0586666
-0.058684
-0.058722
-0.0587796
-0.0588546
-0.0588554
-0.0587793
-0.0587199
-0.0586794
-0.0586592
-0.0586581
-0.058676
-0.0587148
-0.0587734
-0.0588487
-0.0588572
-0.0587861
-0.058727
-0.058689
-0.0586704
-0.0586697
-0.0586868
-0.0587229
-0.0587794
-0.058848
-0.0588549
-0.0587986
-0.0587479
-0.0587181
-0.0587036
-0.0587038
-0.0587179
-0.0587465
-0.0587945
-0.0588477
-0.0588653
-0.0588299
-0.0587889
-0.0587688
-0.0587582
-0.0587589
-0.0587711
-0.0587909
-0.0588301
-0.0588631
-0.0588759
-0.0588569
-0.0588374
-0.058834
-0.0588311
-0.0588327
-0.0588382
-0.0588429
-0.0588617
-0.0588791
-0.0628384
-0.0628647
-0.0629045
-0.0629578
-0.0629942
-0.0630099
-0.0630114
-0.062998
-0.0629826
-0.0629589
-0.0628521
-0.062887
-0.0629267
-0.0629666
-0.0629917
-0.063005
-0.0630083
-0.062999
-0.0629891
-0.0629688
-0.0628799
-0.0629145
-0.0629451
-0.0629699
-0.0629866
-0.0629968
-0.0629987
-0.0629916
-0.0629841
-0.0629684
-0.0629233
-0.0629453
-0.0629602
-0.0629729
-0.0629832
-0.0629902
-0.0629919
-0.0629887
-0.0629848
-0.0629734
-0.0629507
-0.0629624
-0.0629692
-0.0629756
-0.0629812
-0.0629848
-0.0629855
-0.0629836
-0.0629805
-0.0629725
-0.06296
-0.0629694
-0.0629733
-0.0629765
-0.0629789
-0.0629801
-0.0629794
-0.0629774
-0.0629752
-0.0629679
-0.0629593
-0.0629691
-0.0629708
-0.0629738
-0.0629751
-0.0629749
-0.0629733
-0.0629701
-0.0629682
-0.0629592
-0.0629473
-0.0629589
-0.0629615
-0.0629678
-0.0629702
-0.0629699
-0.0629668
-0.0629595
-0.0629555
-0.0629427
-0.0629347
-0.0629498
-0.0629538
-0.0629628
-0.0629656
-0.0629655
-0.0629625
-0.062953
-0.0629469
-0.0629298
-0.0629116
-0.0629292
-0.0629381
-0.0629515
-0.0629572
-0.0629573
-0.0629521
-0.0629385
-0.0629278
-0.0629081
-0.0674594
-0.0674853
-0.0675204
-0.0675595
-0.0675812
-0.0675883
-0.0675887
-0.067579
-0.0675654
-0.0675438
-0.0674721
-0.0675065
-0.067542
-0.067573
-0.0675914
-0.0676006
-0.0676014
-0.0675895
-0.067572
-0.0675467
-0.0674942
-0.0675298
-0.0675557
-0.0675781
-0.0675951
-0.0676051
-0.0676046
-0.0675913
-0.0675728
-0.0675443
-0.0675216
-0.0675506
-0.0675683
-0.0675853
-0.0675997
-0.0676079
-0.0676065
-0.0675944
-0.067576
-0.0675472
-0.0675331
-0.0675593
-0.0675766
-0.0675918
-0.0676025
-0.0676073
-0.067604
-0.0675918
-0.0675735
-0.0675461
-0.0675336
-0.0675609
-0.0675794
-0.0675934
-0.0676013
-0.0676032
-0.0675982
-0.0675858
-0.0675684
-0.0675421
-0.0675314
-0.0675577
-0.067574
-0.0675872
-0.0675934
-0.0675938
-0.0675884
-0.0675759
-0.0675605
-0.0675352
-0.0675233
-0.0675456
-0.067559
-0.0675724
-0.0675781
-0.0675781
-0.0675727
-0.0675596
-0.0675458
-0.0675225
-0.0675135
-0.0675308
-0.0675416
-0.0675537
-0.0675582
-0.0675585
-0.0675547
-0.0675432
-0.0675313
-0.0675117
-0.0674943
-0.0675078
-0.0675149
-0.0675255
-0.0675301
-0.0675307
-0.0675275
-0.0675181
-0.06751
-0.067494
-0.0725308
-0.0725463
-0.0725646
-0.0725792
-0.0725796
-0.0725745
-0.0725718
-0.0725659
-0.0725578
-0.0725444
-0.0725323
-0.0725536
-0.0725707
-0.0725823
-0.0725865
-0.0725871
-0.0725852
-0.0725764
-0.0725627
-0.0725442
-0.0725391
-0.0725589
-0.0725678
-0.072577
-0.0725859
-0.0725912
-0.0725899
-0.0725798
-0.0725658
-0.0725443
-0.0725453
-0.0725609
-0.0725673
-0.0725771
-0.0725872
-0.0725935
-0.072593
-0.072584
-0.0725704
-0.0725493
-0.0725395
-0.0725565
-0.0725675
-0.0725791
-0.0725879
-0.072593
-0.0725919
-0.0725834
-0.0725707
-0.0725511
-0.0725312
-0.0725516
-0.0725664
-0.072579
-0.0725868
-0.0725904
-0.0725888
-0.0725807
-0.0725693
-0.0725512
-0.0725283
-0.0725482
-0.0725622
-0.0725749
-0.0725817
-0.0725846
-0.0725833
-0.0725759
-0.0725664
-0.0725502
-0.0725252
-0.0725416
-0.072553
-0.072565
-0.0725713
-0.0725739
-0.072573
-0.0725661
-0.0725591
-0.0725453
-0.0725227
-0.0725335
-0.0725429
-0.0725532
-0.0725583
-0.072561
-0.0725615
-0.0725567
-0.0725511
-0.0725417
-0.0725141
-0.0725205
-0.0725261
-0.0725347
-0.0725393
-0.0725421
-0.0725435
-0.0725409
-0.0725396
-0.0725342
-0.0778621
-0.0778697
-0.0778752
-0.0778727
-0.0778596
-0.077847
-0.0778429
-0.0778416
-0.0778398
-0.0778339
-0.0778561
-0.0778699
-0.0778755
-0.0778737
-0.0778668
-0.0778591
-0.0778543
-0.0778492
-0.0778421
-0.0778313
-0.077853
-0.0778642
-0.0778647
-0.077865
-0.0778651
-0.0778631
-0.0778588
-0.0778516
-0.0778443
-0.0778321
-0.0778466
-0.0778542
-0.0778554
-0.0778595
-0.0778633
-0.0778642
-0.0778618
-0.0778553
-0.0778479
-0.0778368
-0.077832
-0.0778412
-0.0778476
-0.0778549
-0.0778596
-0.0778619
-0.0778608
-0.0778553
-0.0778488
-0.0778388
-0.0778199
-0.0778312
-0.0778406
-0.0778496
-0.0778552
-0.0778583
-0.0778584
-0.0778542
-0.077849
-0.0778403
-0.0778161
-0.0778264
-0.0778349
-0.077844
-0.0778496
-0.0778533
-0.0778548
-0.0778522
-0.0778489
-0.077842
-0.0778149
-0.077823
-0.0778292
-0.0778373
-0.0778422
-0.077846
-0.0778485
-0.0778472
-0.0778465
-0.0778414
-0.0778158
-0.0778204
-0.0778255
-0.0778317
-0.0778355
-0.0778391
-0.0778426
-0.0778434
-0.0778437
-0.0778418
-0.0778145
-0.0778159
-0.0778185
-0.0778234
-0.0778262
-0.0778295
-0.0778336
-0.0778359
-0.0778391
-0.0778406
-0.083222
-0.0832306
-0.0832367
-0.0832349
-0.083226
-0.0832198
-0.0832225
-0.0832289
-0.0832348
-0.0832358
-0.0832256
-0.0832414
-0.0832486
-0.0832482
-0.083243
-0.0832374
-0.0832364
-0.0832384
-0.0832403
-0.083238
-0.0832342
-0.0832459
-0.0832499
-0.083252
-0.0832518
-0.083249
-0.0832464
-0.0832452
-0.0832465
-0.0832441
-0.0832393
-0.083246
-0.0832499
-0.083255
-0.0832575
-0.0832568
-0.0832554
-0.0832536
-0.0832534
-0.0832517
-0.0832377
-0.0832431
-0.0832489
-0.0832552
-0.0832585
-0.0832601
-0.0832601
-0.0832585
-0.0832582
-0.0832565
-0.0832379
-0.0832421
-0.0832472
-0.0832535
-0.0832578
-0.0832609
-0.0832627
-0.0832622
-0.0832622
-0.0832609
-0.083243
-0.0832448
-0.0832476
-0.0832529
-0.0832569
-0.0832608
-0.083264
-0.0832648
-0.083266
-0.0832658
-0.0832484
-0.0832488
-0.0832494
-0.0832532
-0.0832559
-0.0832594
-0.0832631
-0.0832648
-0.0832679
-0.0832687
-0.0832542
-0.0832534
-0.0832539
-0.0832559
-0.0832571
-0.0832595
-0.083263
-0.0832657
-0.083269
-0.0832713
-0.0832585
-0.0832563
-0.083256
-0.0832572
-0.0832571
-0.0832585
-0.0832616
-0.0832643
-0.0832683
-0.0832726
-0.0886665
-0.0886737
-0.0886789
-0.0886795
-0.0886779
-0.0886804
-0.0886901
-0.0887028
-0.0887148
-0.0887206
-0.088681
-0.0886952
-0.0887015
-0.0887023
-0.0887006
-0.0886996
-0.0887039
-0.0887124
-0.0887217
-0.0887262
-0.0887005
-0.088711
-0.0887158
-0.0887185
-0.0887188
-0.0887172
-0.0887179
-0.0887226
-0.0887308
-0.0887355
-0.0887175
-0.0887236
-0.0887279
-0.0887323
-0.0887334
-0.0887321
-0.0887324
-0.0887351
-0.0887405
-0.088745
-0.0887302
-0.0887338
-0.0887378
-0.0887414
-0.0887423
-0.0887426
-0.0887433
-0.0887448
-0.0887488
-0.0887521
-0.0887435
-0.0887444
-0.0887454
-0.0887476
-0.0887489
-0.0887502
-0.0887521
-0.0887536
-0.0887565
-0.0887591
-0.0887571
-0.0887552
-0.0887538
-0.0887545
-0.0887551
-0.0887569
-0.0887594
-0.0887611
-0.088764
-0.0887667
-0.0887678
-0.0887651
-0.0887625
-0.0887621
-0.0887614
-0.0887623
-0.0887645
-0.0887662
-0.0887699
-0.0887729
-0.0887767
-0.0887741
-0.0887723
-0.0887711
-0.0887692
-0.0887687
-0.0887698
-0.0887715
-0.0887747
-0.0887781
-0.0887835
-0.0887806
-0.0887794
-0.0887781
-0.0887755
-0.088774
-0.0887742
-0.0887751
-0.0887777
-0.0887817
-0.0942273
-0.0942272
-0.0942236
-0.0942191
-0.0942186
-0.094225
-0.0942379
-0.0942538
-0.0942704
-0.0942817
-0.094248
-0.094252
-0.0942474
-0.0942418
-0.0942395
-0.0942417
-0.0942503
-0.0942633
-0.0942784
-0.0942892
-0.0942701
-0.0942708
-0.0942663
-0.0942631
-0.0942615
-0.0942616
-0.0942664
-0.0942761
-0.0942897
-0.0943001
-0.0942894
-0.0942884
-0.0942855
-0.0942844
-0.0942827
-0.0942815
-0.0942844
-0.0942913
-0.0943011
-0.0943099
-0.0943072
-0.094306
-0.0943039
-0.0943021
-0.0942995
-0.0942985
-0.0943001
-0.0943044
-0.0943116
-0.0943181
-0.0943256
-0.0943235
-0.0943198
-0.0943168
-0.094314
-0.0943129
-0.0943141
-0.0943168
-0.0943217
-0.0943267
-0.094342
-0.0943388
-0.0943344
-0.0943308
-0.0943273
-0.0943258
-0.0943264
-0.0943279
-0.0943316
-0.0943359
-0.0943539
-0.0943506
-0.0943467
-0.0943433
-0.0943391
-0.0943366
-0.0943362
-0.0943366
-0.09434
-0.0943443
-0.094363
-0.0943602
-0.0943577
-0.0943545
-0.0943502
-0.0943468
-0.0943451
-0.0943448
-0.0943474
-0.0943515
-0.0943698
-0.0943668
-0.094365
-0.0943623
-0.0943581
-0.0943545
-0.0943522
-0.0943514
-0.0943531
-0.094357
-0.0998458
-0.0998417
-0.0998273
-0.0998121
-0.0998046
-0.0998065
-0.0998151
-0.0998274
-0.099843
-0.0998559
-0.0998636
-0.0998587
-0.0998404
-0.0998244
-0.0998172
-0.0998185
-0.0998269
-0.0998392
-0.0998542
-0.0998666
-0.0998768
-0.0998683
-0.0998518
-0.0998403
-0.0998358
-0.0998368
-0.0998437
-0.0998549
-0.0998687
-0.0998795
-0.099886
-0.0998792
-0.0998683
-0.0998614
-0.099858
-0.099858
-0.0998632
-0.0998719
-0.0998821
-0.0998903
-0.0998967
-0.0998942
-0.0998884
-0.0998833
-0.0998795
-0.0998788
-0.0998815
-0.099887
-0.0998944
-0.0998999
-0.0999102
-0.0999112
-0.0999079
-0.0999038
-0.0998999
-0.0998981
-0.099899
-0.0999017
-0.0999061
-0.09991
-0.0999235
-0.0999262
-0.0999253
-0.0999225
-0.0999183
-0.0999156
-0.0999147
-0.0999151
-0.0999175
-0.0999203
-0.0999342
-0.0999376
-0.0999385
-0.0999372
-0.0999333
-0.0999296
-0.0999273
-0.0999259
-0.0999272
-0.0999299
-0.0999437
-0.0999469
-0.0999489
-0.0999482
-0.0999449
-0.099941
-0.0999376
-0.0999353
-0.0999358
-0.0999384
-0.0999514
-0.0999534
-0.099955
-0.0999544
-0.0999516
-0.0999481
-0.0999447
-0.0999424
-0.0999424
-0.0999447
-0.105557
-0.105545
-0.105517
-0.105487
-0.105468
-0.105459
-0.105459
-0.105466
-0.105479
-0.105493
-0.105569
-0.105549
-0.105514
-0.105483
-0.105466
-0.105461
-0.105465
-0.105473
-0.105487
-0.105501
-0.105565
-0.105541
-0.105508
-0.105484
-0.105472
-0.10547
-0.105475
-0.105484
-0.105497
-0.105508
-0.105553
-0.105534
-0.10551
-0.105493
-0.105485
-0.105483
-0.105488
-0.105496
-0.105506
-0.105514
-0.105544
-0.105533
-0.105519
-0.105508
-0.1055
-0.105498
-0.105501
-0.105506
-0.105514
-0.105519
-0.105542
-0.105538
-0.105531
-0.105523
-0.105517
-0.105514
-0.105514
-0.105517
-0.105522
-0.105527
-0.105543
-0.105544
-0.105542
-0.105538
-0.105533
-0.105529
-0.105528
-0.105528
-0.105531
-0.105535
-0.105547
-0.10555
-0.105551
-0.105549
-0.105545
-0.105541
-0.105539
-0.105538
-0.10554
-0.105543
-0.105554
-0.105556
-0.105557
-0.105556
-0.105554
-0.105551
-0.105548
-0.105547
-0.105549
-0.105552
-0.105561
-0.105562
-0.105562
-0.10556
-0.105558
-0.105556
-0.105555
-0.105554
-0.105556
-0.10556
-0.111187
-0.111176
-0.111148
-0.111118
-0.111094
-0.111081
-0.111075
-0.111075
-0.111084
-0.111096
-0.111194
-0.111173
-0.111135
-0.111102
-0.111083
-0.111076
-0.111076
-0.11108
-0.11109
-0.111102
-0.111183
-0.111154
-0.111117
-0.111091
-0.111079
-0.111076
-0.11108
-0.111086
-0.111095
-0.111105
-0.11116
-0.111135
-0.111108
-0.11109
-0.111082
-0.11108
-0.111084
-0.111091
-0.111098
-0.111105
-0.111138
-0.111123
-0.111107
-0.111096
-0.111089
-0.111088
-0.111091
-0.111096
-0.111102
-0.111107
-0.111124
-0.111118
-0.111111
-0.111104
-0.1111
-0.111098
-0.111099
-0.111102
-0.111106
-0.111111
-0.111118
-0.111117
-0.111116
-0.111113
-0.11111
-0.111108
-0.111108
-0.111109
-0.111112
-0.111115
-0.111118
-0.111119
-0.11112
-0.11112
-0.111118
-0.111117
-0.111116
-0.111116
-0.111118
-0.111121
-0.111124
-0.111125
-0.111126
-0.111125
-0.111124
-0.111124
-0.111123
-0.111124
-0.111126
-0.111129
-0.111132
-0.111132
-0.111131
-0.111129
-0.111128
-0.111128
-0.111129
-0.11113
-0.111133
-0.111135
-0.116796
-0.116785
-0.116762
-0.116737
-0.116717
-0.116703
-0.116696
-0.116693
-0.116697
-0.116708
-0.116794
-0.116771
-0.116739
-0.116712
-0.116696
-0.116688
-0.116686
-0.116687
-0.116694
-0.116705
-0.116772
-0.116743
-0.116711
-0.11669
-0.116679
-0.116675
-0.116677
-0.11668
-0.116688
-0.116698
-0.11674
-0.116714
-0.116691
-0.116676
-0.116668
-0.116667
-0.116669
-0.116673
-0.11668
-0.116689
-0.11671
-0.116693
-0.116677
-0.116668
-0.116663
-0.116662
-0.116664
-0.116669
-0.116675
-0.116683
-0.116689
-0.116678
-0.116669
-0.116664
-0.116661
-0.116661
-0.116663
-0.116667
-0.116673
-0.116681
-0.116676
-0.116669
-0.116665
-0.116663
-0.116662
-0.116662
-0.116664
-0.116668
-0.116674
-0.11668
-0.116673
-0.116668
-0.116665
-0.116663
-0.116663
-0.116664
-0.116667
-0.116671
-0.116677
-0.116683
-0.116677
-0.116673
-0.116669
-0.116666
-0.116667
-0.116669
-0.116673
-0.116678
-0.116683
-0.116688
-0.116684
-0.116681
-0.116676
-0.116672
-0.116672
-0.116674
-0.116679
-0.116685
-0.11669
-0.116694
-0.122273
-0.122266
-0.122256
-0.122247
-0.122241
-0.122239
-0.122238
-0.122237
-0.122239
-0.122246
-0.122263
-0.122246
-0.122231
-0.122222
-0.122218
-0.122219
-0.122221
-0.122223
-0.122228
-0.122237
-0.122242
-0.122222
-0.122207
-0.122201
-0.122199
-0.1222
-0.122203
-0.122207
-0.122213
-0.122223
-0.122217
-0.122199
-0.122189
-0.122184
-0.122184
-0.122185
-0.122188
-0.122192
-0.122199
-0.122209
-0.122196
-0.122182
-0.122174
-0.122171
-0.122171
-0.122173
-0.122176
-0.122181
-0.122189
-0.122199
-0.122181
-0.122169
-0.122163
-0.122161
-0.122162
-0.122165
-0.122168
-0.122174
-0.122183
-0.122193
-0.122174
-0.122163
-0.122156
-0.122155
-0.122156
-0.12216
-0.122165
-0.122172
-0.12218
-0.12219
-0.122173
-0.122162
-0.122155
-0.122153
-0.122154
-0.122159
-0.122165
-0.122173
-0.122181
-0.12219
-0.122177
-0.122168
-0.122161
-0.122157
-0.122158
-0.122163
-0.12217
-0.122178
-0.122186
-0.122193
-0.122185
-0.122178
-0.12217
-0.122166
-0.122166
-0.122171
-0.122178
-0.122186
-0.122193
-0.122199
-0.127639
-0.127633
-0.127637
-0.127647
-0.12766
-0.127674
-0.127684
-0.127687
-0.127687
-0.127692
-0.127623
-0.127613
-0.127617
-0.127629
-0.127642
-0.127654
-0.127663
-0.127668
-0.127672
-0.127678
-0.127606
-0.127599
-0.127605
-0.127617
-0.127627
-0.127635
-0.127642
-0.127647
-0.127653
-0.127661
-0.127597
-0.127591
-0.127597
-0.127607
-0.127614
-0.127619
-0.127623
-0.127628
-0.127636
-0.127646
-0.127594
-0.127588
-0.12759
-0.127596
-0.127601
-0.127605
-0.127609
-0.127615
-0.127624
-0.127635
-0.127595
-0.127586
-0.127583
-0.127585
-0.127589
-0.127594
-0.127599
-0.127606
-0.127617
-0.127628
-0.127598
-0.127586
-0.127579
-0.127578
-0.127581
-0.127587
-0.127593
-0.127602
-0.127612
-0.127622
-0.127602
-0.12759
-0.12758
-0.127577
-0.127579
-0.127585
-0.127592
-0.127601
-0.127611
-0.12762
-0.127607
-0.127596
-0.127587
-0.127583
-0.127584
-0.127589
-0.127597
-0.127606
-0.127614
-0.127621
-0.127616
-0.127606
-0.127598
-0.127593
-0.127594
-0.127599
-0.127605
-0.127613
-0.12762
-0.127627
-0.132929
-0.132919
-0.132929
-0.132951
-0.132978
-0.133005
-0.133025
-0.133032
-0.133031
-0.133036
-0.132905
-0.132899
-0.132915
-0.132941
-0.132967
-0.132989
-0.133005
-0.133013
-0.133016
-0.13302
-0.132895
-0.132896
-0.132916
-0.132941
-0.132961
-0.132975
-0.132985
-0.132992
-0.132998
-0.133005
-0.132901
-0.132905
-0.132923
-0.132941
-0.132954
-0.132962
-0.132969
-0.132976
-0.132984
-0.132993
-0.132917
-0.132918
-0.132927
-0.132937
-0.132945
-0.132951
-0.132957
-0.132964
-0.132973
-0.132984
-0.132934
-0.132928
-0.132928
-0.132932
-0.132936
-0.132942
-0.132948
-0.132956
-0.132966
-0.132976
-0.132946
-0.132936
-0.132929
-0.132928
-0.13293
-0.132936
-0.132942
-0.132951
-0.132961
-0.13297
-0.132953
-0.132942
-0.132933
-0.132928
-0.132929
-0.132934
-0.132941
-0.132949
-0.132958
-0.132966
-0.132957
-0.132948
-0.132939
-0.132935
-0.132935
-0.132939
-0.132945
-0.132952
-0.132959
-0.132966
-0.132966
-0.132954
-0.132948
-0.132945
-0.132945
-0.132948
-0.132953
-0.132958
-0.132964
-0.132973
-0.138125
-0.138112
-0.138123
-0.138149
-0.13818
-0.138209
-0.138227
-0.138232
-0.138228
-0.13823
-0.138098
-0.138095
-0.138116
-0.138147
-0.138177
-0.1382
-0.138215
-0.138221
-0.138218
-0.138217
-0.138094
-0.1381
-0.138126
-0.138155
-0.138178
-0.138193
-0.138203
-0.138208
-0.138209
-0.138209
-0.138109
-0.13812
-0.138143
-0.138164
-0.138178
-0.138186
-0.138193
-0.138198
-0.138202
-0.138205
-0.138134
-0.138143
-0.138156
-0.138167
-0.138175
-0.13818
-0.138185
-0.13819
-0.138196
-0.138201
-0.138157
-0.138159
-0.138163
-0.138167
-0.138171
-0.138175
-0.138179
-0.138185
-0.138191
-0.138196
-0.138171
-0.138169
-0.138167
-0.138166
-0.138168
-0.138171
-0.138176
-0.138181
-0.138186
-0.13819
-0.138176
-0.138174
-0.138169
-0.138168
-0.138168
-0.138171
-0.138174
-0.138178
-0.138183
-0.138186
-0.138176
-0.138174
-0.138172
-0.138171
-0.138172
-0.138174
-0.138176
-0.138179
-0.138182
-0.138185
-0.138183
-0.138175
-0.138175
-0.138176
-0.138178
-0.138179
-0.13818
-0.138182
-0.138184
-0.138193
-0.143325
-0.143306
-0.14331
-0.143324
-0.143342
-0.143355
-0.143361
-0.143357
-0.143349
-0.143352
-0.143294
-0.143287
-0.1433
-0.143319
-0.143336
-0.143347
-0.143352
-0.143348
-0.143341
-0.143336
-0.143286
-0.143289
-0.143305
-0.143322
-0.143334
-0.14334
-0.143342
-0.143339
-0.143334
-0.14333
-0.143295
-0.143303
-0.143316
-0.143326
-0.143331
-0.143332
-0.143332
-0.143331
-0.143329
-0.143327
-0.143311
-0.143317
-0.143323
-0.143326
-0.143325
-0.143324
-0.143324
-0.143324
-0.143324
-0.143324
-0.143323
-0.143325
-0.143325
-0.143323
-0.143319
-0.143317
-0.143316
-0.143317
-0.143318
-0.143318
-0.143326
-0.143326
-0.143323
-0.143318
-0.143314
-0.143312
-0.143311
-0.143311
-0.143311
-0.143312
-0.143323
-0.143322
-0.143319
-0.143315
-0.143311
-0.143309
-0.143307
-0.143306
-0.143307
-0.143308
-0.143316
-0.143315
-0.143314
-0.143312
-0.14331
-0.143308
-0.143306
-0.143305
-0.143305
-0.143307
-0.143319
-0.143311
-0.14331
-0.14331
-0.14331
-0.143308
-0.143306
-0.143306
-0.143306
-0.143316
-0.148367
-0.148356
-0.148359
-0.148363
-0.148365
-0.14836
-0.148349
-0.148336
-0.148322
-0.148324
-0.148343
-0.148343
-0.148352
-0.148359
-0.148361
-0.148356
-0.148346
-0.148332
-0.148317
-0.14831
-0.148338
-0.148342
-0.148351
-0.148356
-0.148354
-0.148348
-0.148339
-0.148327
-0.148315
-0.148307
-0.148341
-0.148347
-0.148352
-0.148352
-0.148346
-0.148338
-0.148331
-0.148322
-0.148313
-0.148305
-0.148345
-0.148349
-0.148349
-0.148344
-0.148336
-0.148328
-0.148321
-0.148315
-0.148309
-0.148303
-0.148343
-0.148345
-0.148342
-0.148335
-0.148326
-0.148319
-0.148313
-0.148307
-0.148302
-0.148298
-0.148335
-0.148337
-0.148333
-0.148326
-0.148318
-0.148311
-0.148305
-0.1483
-0.148296
-0.148293
-0.148326
-0.148326
-0.148324
-0.148319
-0.148312
-0.148305
-0.148299
-0.148294
-0.148291
-0.14829
-0.148316
-0.148316
-0.148315
-0.148312
-0.148306
-0.148301
-0.148295
-0.14829
-0.148287
-0.148287
-0.14832
-0.14831
-0.148308
-0.148305
-0.148302
-0.148297
-0.148292
-0.148289
-0.148286
-0.148295
-0.153356
-0.153351
-0.153354
-0.153348
-0.153336
-0.153315
-0.153293
-0.153274
-0.153261
-0.153264
-0.153341
-0.153343
-0.153345
-0.153339
-0.153326
-0.153305
-0.153283
-0.153262
-0.153246
-0.153241
-0.153335
-0.153335
-0.153333
-0.153323
-0.153307
-0.153288
-0.153269
-0.153251
-0.153236
-0.15323
-0.153325
-0.153323
-0.153316
-0.153302
-0.153285
-0.153269
-0.153254
-0.15324
-0.153228
-0.153221
-0.15331
-0.153305
-0.153295
-0.15328
-0.153263
-0.153249
-0.153238
-0.153229
-0.15322
-0.153214
-0.15329
-0.153284
-0.153273
-0.153259
-0.153245
-0.153233
-0.153224
-0.153217
-0.153211
-0.153208
-0.15327
-0.153263
-0.153254
-0.153242
-0.153231
-0.153221
-0.153214
-0.153208
-0.153205
-0.153205
-0.153255
-0.153246
-0.153238
-0.153229
-0.15322
-0.153212
-0.153207
-0.153203
-0.153202
-0.153205
-0.153243
-0.153233
-0.153226
-0.153219
-0.153212
-0.153207
-0.153203
-0.153201
-0.153201
-0.153205
-0.153246
-0.153228
-0.153221
-0.153213
-0.153208
-0.153204
-0.153202
-0.153203
-0.153205
-0.153216
-0.158136
-0.158142
-0.158152
-0.158148
-0.158136
-0.158117
-0.158097
-0.158085
-0.158077
-0.158082
-0.158127
-0.158139
-0.158146
-0.158142
-0.158128
-0.158108
-0.158087
-0.15807
-0.158059
-0.158058
-0.158124
-0.158131
-0.158132
-0.158123
-0.158108
-0.15809
-0.158073
-0.158058
-0.158047
-0.158045
-0.158112
-0.158114
-0.158109
-0.158097
-0.158083
-0.15807
-0.158058
-0.158047
-0.158038
-0.158035
-0.158092
-0.15809
-0.158082
-0.158071
-0.158059
-0.15805
-0.158043
-0.158037
-0.158031
-0.15803
-0.15807
-0.158066
-0.158058
-0.158049
-0.158041
-0.158035
-0.158032
-0.158029
-0.158027
-0.158029
-0.158054
-0.158048
-0.158041
-0.158034
-0.158029
-0.158026
-0.158024
-0.158024
-0.158026
-0.158031
-0.158046
-0.158036
-0.15803
-0.158025
-0.158022
-0.158021
-0.158021
-0.158023
-0.158027
-0.158036
-0.158041
-0.15803
-0.158024
-0.158021
-0.15802
-0.15802
-0.158022
-0.158026
-0.15803
-0.158038
-0.158048
-0.158032
-0.158026
-0.158021
-0.158021
-0.158023
-0.158027
-0.158033
-0.158037
-0.15805
-0.162906
-0.16291
-0.162919
-0.162915
-0.162906
-0.162894
-0.162885
-0.162885
-0.162883
-0.16289
-0.162896
-0.162906
-0.162913
-0.162909
-0.162898
-0.162884
-0.162871
-0.162864
-0.16286
-0.162864
-0.162892
-0.162896
-0.162897
-0.16289
-0.162879
-0.162866
-0.162856
-0.162849
-0.162845
-0.162851
-0.162877
-0.162876
-0.162872
-0.162864
-0.162855
-0.162847
-0.162841
-0.162837
-0.162836
-0.162842
-0.162858
-0.162852
-0.162845
-0.162838
-0.162833
-0.16283
-0.16283
-0.16283
-0.162831
-0.162839
-0.162842
-0.162832
-0.162825
-0.16282
-0.162818
-0.16282
-0.162823
-0.162826
-0.162831
-0.162841
-0.162834
-0.162821
-0.162814
-0.162811
-0.162811
-0.162815
-0.16282
-0.162827
-0.162835
-0.162847
-0.162836
-0.162819
-0.162811
-0.162809
-0.162811
-0.162816
-0.162823
-0.162831
-0.16284
-0.162854
-0.162837
-0.162821
-0.162813
-0.162811
-0.162814
-0.16282
-0.162828
-0.162837
-0.162845
-0.162856
-0.162848
-0.162829
-0.162824
-0.16282
-0.162823
-0.16283
-0.162838
-0.162848
-0.162854
-0.162869
-0.167612
-0.167607
-0.167612
-0.167608
-0.167608
-0.167612
-0.167621
-0.167637
-0.167644
-0.167655
-0.167599
-0.167603
-0.167609
-0.16761
-0.16761
-0.167611
-0.167615
-0.167624
-0.167631
-0.167639
-0.167601
-0.167601
-0.167605
-0.167605
-0.167606
-0.167608
-0.167612
-0.167619
-0.167627
-0.16764
-0.167598
-0.167595
-0.167596
-0.167597
-0.1676
-0.167605
-0.167612
-0.16762
-0.167628
-0.167642
-0.167598
-0.16759
-0.167589
-0.167591
-0.167597
-0.167606
-0.167616
-0.167625
-0.167634
-0.167649
-0.167604
-0.167592
-0.167589
-0.167593
-0.167601
-0.167611
-0.167623
-0.167633
-0.167643
-0.167658
-0.167617
-0.167602
-0.167598
-0.167601
-0.167609
-0.16762
-0.167632
-0.167643
-0.167654
-0.167668
-0.167635
-0.167618
-0.167612
-0.167614
-0.167621
-0.167631
-0.167642
-0.167653
-0.167662
-0.167677
-0.167645
-0.167631
-0.167627
-0.167628
-0.167634
-0.167642
-0.167651
-0.16766
-0.167666
-0.167677
-0.167663
-0.167646
-0.167646
-0.167646
-0.16765
-0.167656
-0.167663
-0.16767
-0.167673
-0.167687
-0.172427
-0.172408
-0.172402
-0.172395
-0.172398
-0.172412
-0.172433
-0.172459
-0.172473
-0.17249
-0.172414
-0.172406
-0.172403
-0.172401
-0.172406
-0.172418
-0.172436
-0.172458
-0.172474
-0.172485
-0.172423
-0.172412
-0.172412
-0.172413
-0.172419
-0.172432
-0.172448
-0.172468
-0.172484
-0.172502
-0.172432
-0.172421
-0.172421
-0.172425
-0.172435
-0.172448
-0.172465
-0.172482
-0.172497
-0.172516
-0.172448
-0.172436
-0.172436
-0.172442
-0.172454
-0.172469
-0.172485
-0.1725
-0.172514
-0.172531
-0.172471
-0.172458
-0.172457
-0.172464
-0.172476
-0.172491
-0.172506
-0.172519
-0.172531
-0.172546
-0.172497
-0.172484
-0.172483
-0.172489
-0.1725
-0.172512
-0.172525
-0.172536
-0.172545
-0.172557
-0.172523
-0.17251
-0.17251
-0.172514
-0.172522
-0.172532
-0.172541
-0.172549
-0.172555
-0.172566
-0.172538
-0.17253
-0.172531
-0.172535
-0.172541
-0.172546