/*--------------------------------*- C++ -*----------------------------------*\
| =========                 |                                                 |
| \\      /  F ield         | OpenFOAM: The Open Source CFD Toolbox           |
|  \\    /   O peration     | Version:  2406                                  |
|   \\  /    A nd           | Website:  www.openfoam.com                      |
|    \\/     M anipulation  |                                                 |
\*---------------------------------------------------------------------------*/
FoamFile
{
    version     2.0;
    format      ascii;
    arch        "LSB;label=32;scalar=64";
    class       surfaceScalarField;
    location    "100";
    object      phi;
}
// * * * * * * * * * * * * * * * * * * * * * * * * * * * * * * * * * * * * * //

dimensions      [0 3 -1 0 0 0 0];

oriented        oriented;

internalField   nonuniform List<scalar> 
73500
(
1.51534e-06
1.58994e-06
4.76591e-05
-1.92007e-06
-1.97049e-06
1.20209e-06
1.442e-06
5.16068e-05
-1.7262e-06
8.20854e-07
1.30133e-06
5.46133e-05
-1.55776e-06
4.31435e-07
1.2139e-06
5.66396e-05
-1.47313e-06
3.52646e-08
1.1668e-06
5.76588e-05
-1.42968e-06
-3.5769e-07
1.16034e-06
5.7657e-05
-1.42727e-06
-7.46587e-07
1.18948e-06
5.6634e-05
-1.46109e-06
-1.13092e-06
1.25287e-06
5.46042e-05
-1.52859e-06
-1.5008e-06
1.3578e-06
5.15945e-05
-1.64282e-06
1.51373e-06
4.76448e-05
-1.82576e-06
-1.83054e-06
1.36995e-06
1.21339e-06
5.16052e-05
-1.65488e-06
1.05665e-06
1.09342e-06
5.52442e-05
7.23688e-07
9.94882e-07
5.80204e-05
3.78521e-07
9.25556e-07
5.98927e-05
2.81235e-08
8.87877e-07
6.0835e-05
-3.243e-07
8.80542e-07
6.08335e-05
-6.74077e-07
9.03102e-07
5.98882e-05
-1.01832e-06
9.55038e-07
5.80131e-05
-1.34566e-06
1.0361e-06
5.52347e-05
1.15004e-06
5.15943e-05
-1.63618e-06
1.25485e-06
8.10212e-07
5.46115e-05
-1.54758e-06
9.58754e-07
7.35929e-07
5.80196e-05
6.53816e-07
6.75226e-07
6.06215e-05
3.39733e-07
6.28095e-07
6.23776e-05
2.03491e-08
6.01206e-07
6.32618e-05
-3.01462e-07
5.95029e-07
6.32606e-05
-6.22174e-07
6.09633e-07
6.23742e-05
-9.37779e-07
6.44252e-07
6.06161e-05
-1.24068e-06
6.97327e-07
5.80125e-05
7.71764e-07
5.46033e-05
-1.52083e-06
1.18892e-06
4.20299e-07
5.66383e-05
-1.47016e-06
8.98875e-07
3.80496e-07
5.98919e-05
6.06855e-07
3.48656e-07
6.23773e-05
3.12539e-07
3.25453e-07
6.40558e-05
1.40307e-08
3.10493e-07
6.49012e-05
-2.86816e-07
3.05702e-07
6.49003e-05
-5.87717e-07
3.11344e-07
6.40532e-05
-8.85301e-07
3.27628e-07
6.23733e-05
-1.17626e-06
3.53416e-07
5.98867e-05
3.89982e-07
5.66322e-05
-1.45346e-06
1.15369e-06
2.33037e-08
5.7658e-05
-1.43556e-06
8.67991e-07
2.33975e-08
6.08344e-05
5.84004e-07
2.36715e-08
6.32615e-05
2.97585e-07
2.06273e-08
6.49011e-05
9.23264e-09
1.75731e-08
6.57272e-05
-2.81144e-07
1.39329e-08
6.57265e-05
-5.71592e-07
1.10301e-08
6.48992e-05
-8.60188e-07
8.55506e-09
6.32585e-05
-1.14463e-06
6.66404e-09
6.08306e-05
5.39003e-09
5.76538e-05
-1.4187e-06
1.15362e-06
-3.66177e-07
5.76566e-05
-1.4301e-06
8.68233e-07
-3.28706e-07
6.08331e-05
5.81052e-07
-3.02375e-07
6.32604e-05
2.94511e-07
-2.83523e-07
6.49002e-05
5.58001e-09
-2.76248e-07
6.57265e-05
-2.84026e-07
-2.78143e-07
6.5726e-05
-5.74015e-07
-2.90211e-07
6.48989e-05
-8.6198e-07
-3.11205e-07
6.32583e-05
-1.14577e-06
-3.4035e-07
6.08304e-05
-3.79452e-07
5.76536e-05
-1.41944e-06
1.18631e-06
-7.54196e-07
5.66339e-05
-1.46618e-06
8.94042e-07
-6.79523e-07
5.98881e-05
5.99735e-07
-6.23976e-07
6.23741e-05
3.01719e-07
-5.87541e-07
6.40532e-05
3.62131e-09
-5.69181e-07
6.48992e-05
-2.96111e-07
-5.70764e-07
6.48989e-05
-5.94808e-07
-5.90977e-07
6.40522e-05
-8.90372e-07
-6.29667e-07
6.23726e-05
-1.17976e-06
-6.85797e-07
5.98862e-05
-7.62135e-07
5.66319e-05
-1.45564e-06
1.25155e-06
-1.13609e-06
5.46043e-05
-1.53165e-06
9.49315e-07
-1.02359e-06
5.80131e-05
6.36203e-07
-9.41568e-07
6.06161e-05
3.20193e-07
-8.87372e-07
6.23733e-05
1.92941e-09
-8.60639e-07
6.32586e-05
-3.16573e-07
-8.61336e-07
6.32583e-05
-6.3353e-07
-8.8858e-07
6.23726e-05
-9.46049e-07
-9.43936e-07
6.0615e-05
-1.24616e-06
-1.02685e-06
5.80118e-05
-1.14203e-06
5.46029e-05
-1.52427e-06
1.35621e-06
-1.50583e-06
5.15947e-05
-1.64647e-06
1.03159e-06
-1.35169e-06
5.52348e-05
6.90852e-07
-1.24622e-06
5.80126e-05
3.47542e-07
-1.18024e-06
5.98868e-05
1.09843e-09
-1.14751e-06
6.08307e-05
-3.44581e-07
-1.14722e-06
6.08305e-05
-6.89387e-07
-1.18037e-06
5.98862e-05
-1.02899e-06
-1.24574e-06
5.80118e-05
-1.35284e-06
-1.35185e-06
5.52338e-05
-1.50826e-06
5.15937e-05
-1.64051e-06
1.51088e-06
4.7645e-05
-1.8294e-06
-1.83063e-06
1.14564e-06
5.15944e-05
-1.64185e-06
7.66697e-07
5.46035e-05
-1.52541e-06
3.85156e-07
5.66323e-05
-1.4579e-06
1.33452e-09
5.76538e-05
-1.42194e-06
-3.82807e-07
5.76537e-05
-1.42225e-06
-7.64624e-07
5.66319e-05
-1.45732e-06
-1.14356e-06
5.46029e-05
-1.52534e-06
-1.50924e-06
5.15937e-05
-1.64049e-06
4.76443e-05
-1.82953e-06
-1.82896e-06
2.12441e-06
2.1442e-06
4.83432e-05
-2.46626e-06
-2.50067e-06
1.53323e-06
1.87234e-06
5.23471e-05
-2.02375e-06
1.03205e-06
1.77652e-06
5.53983e-05
-2.05733e-06
5.23127e-07
1.72569e-06
5.74558e-05
-2.02697e-06
9.22329e-10
1.69758e-06
5.84913e-05
-2.00459e-06
-5.22216e-07
1.69743e-06
5.84908e-05
-2.00435e-06
-1.03795e-06
1.72242e-06
5.74542e-05
-2.02385e-06
-1.5437e-06
1.77227e-06
5.53959e-05
-2.05652e-06
-2.14361e-06
1.86756e-06
5.23444e-05
-2.01499e-06
2.15116e-06
4.83405e-05
-2.49176e-06
-2.49597e-06
1.8468e-06
1.54313e-06
5.23462e-05
-1.99553e-06
1.45098e-06
1.46923e-06
5.60384e-05
9.94318e-07
1.40244e-06
5.88533e-05
5.05554e-07
1.35685e-06
6.07517e-05
1.35909e-09
1.33369e-06
6.17076e-05
-5.05674e-07
1.33224e-06
6.17072e-05
-9.97417e-07
1.35388e-06
6.07505e-05
-1.45998e-06
1.39845e-06
5.88515e-05
-1.86108e-06
1.46806e-06
5.60364e-05
1.55296e-06
5.23444e-05
-2.01041e-06
1.75665e-06
1.03638e-06
5.53969e-05
-2.05e-06
1.3828e-06
1.00511e-06
5.88526e-05
9.52208e-07
9.67804e-07
6.14887e-05
4.85362e-07
9.3674e-07
6.32672e-05
4.8138e-10
9.20279e-07
6.41629e-05
-4.85351e-07
9.19318e-07
6.41627e-05
-9.55137e-07
9.33621e-07
6.32664e-05
-1.39056e-06
9.63896e-07
6.14877e-05
-1.76564e-06
1.00643e-06
5.88514e-05
1.04782e-06
5.53957e-05
-2.05056e-06
1.71144e-06
5.25788e-07
5.74543e-05
-2.02093e-06
1.3407e-06
5.13655e-07
6.07506e-05
9.20647e-07
4.95413e-07
6.32666e-05
4.69055e-07
4.81629e-07
6.49648e-05
4.63992e-11
4.73458e-07
6.58204e-05
-4.70313e-07
4.72353e-07
6.58202e-05
-9.24705e-07
4.79357e-07
6.49644e-05
-1.34574e-06
4.94318e-07
6.32662e-05
-1.71535e-06
5.14263e-07
6.07501e-05
5.31391e-07
5.74536e-05
-2.01794e-06
1.68818e-06
-2.64038e-10
5.84899e-05
-2.00443e-06
1.31904e-06
3.70759e-09
6.17064e-05
9.06272e-07
7.90762e-09
6.41621e-05
4.60809e-07
8.76271e-09
6.582e-05
-8.2274e-10
9.11141e-09
6.66554e-05
-4.6308e-07
8.5507e-09
6.66554e-05
-9.09918e-07
7.67138e-09
6.58199e-05
-1.32401e-06
6.75752e-09
6.41621e-05
-1.68952e-06
5.99239e-09
6.17064e-05
5.2536e-09
5.84898e-05
-1.99716e-06
1.69064e-06
-5.24001e-07
5.84896e-05
-2.00305e-06
1.3222e-06
-5.03854e-07
6.1706e-05
9.06454e-07
-4.82079e-07
6.41617e-05
4.60904e-07
-4.64033e-07
6.58196e-05
-1.35673e-09
-4.56174e-07
6.66551e-05
-4.63774e-07
-4.56138e-07
6.66551e-05
-9.10549e-07
-4.64646e-07
6.58197e-05
-1.32445e-06
-4.81267e-07
6.41619e-05
-1.68987e-06
-5.02857e-07
6.17063e-05
-5.21147e-07
5.84897e-05
-1.99729e-06
1.71833e-06
-1.04142e-06
5.74531e-05
-2.02631e-06
1.34494e-06
-9.98431e-07
6.07494e-05
9.23728e-07
-9.5339e-07
6.32655e-05
4.68636e-07
-9.22093e-07
6.49637e-05
-1.35454e-09
-9.05759e-07
6.58194e-05
-4.72213e-07
-9.05877e-07
6.58195e-05
-9.26572e-07
-9.21516e-07
6.49639e-05
-1.34724e-06
-9.52818e-07
6.32658e-05
-1.71625e-06
-9.96265e-07
6.07497e-05
-1.03845e-06
5.74534e-05
-2.01847e-06
1.7696e-06
-1.54637e-06
5.53951e-05
-2.05787e-06
1.39192e-06
-1.46226e-06
5.88506e-05
9.54963e-07
-1.39173e-06
6.14868e-05
4.85345e-07
-1.34614e-06
6.32654e-05
-1.52666e-09
-1.32326e-06
6.41615e-05
-4.88339e-07
-1.32313e-06
6.41616e-05
-9.5783e-07
-1.34479e-06
6.32656e-05
-1.39285e-06
-1.39014e-06
6.14872e-05
-1.7672e-06
-1.46013e-06
5.88509e-05
-1.54511e-06
5.53954e-05
-2.0514e-06
1.8644e-06
-2.14691e-06
5.23437e-05
-2.01783e-06
1.46237e-06
-1.86471e-06
5.60356e-05
9.98385e-07
-1.76934e-06
5.88506e-05
5.06799e-07
-1.71798e-06
6.07494e-05
-1.41748e-09
-1.69173e-06
6.17059e-05
-5.08603e-07
-1.69093e-06
6.17059e-05
-1.00108e-06
-1.7167e-06
6.07495e-05
-1.463e-06
-1.76662e-06
5.88509e-05
-1.86318e-06
-1.86182e-06
5.60359e-05
-2.14527e-06
5.2344e-05
-2.01181e-06
2.14671e-06
4.834e-05
-2.4942e-06
-2.49551e-06
1.5469e-06
5.23438e-05
-2.01462e-06
1.04102e-06
5.53952e-05
-2.05387e-06
5.24777e-07
5.74531e-05
-2.0216e-06
-5.00936e-10
5.84894e-05
-2.00001e-06
-5.26021e-07
5.84894e-05
-2.00009e-06
-1.04221e-06
5.74532e-05
-2.02027e-06
-1.54758e-06
5.53953e-05
-2.05262e-06
-2.14691e-06
5.23439e-05
-2.01176e-06
4.83402e-05
-2.49363e-06
-2.49276e-06
1.6312e-06
1.63063e-06
4.88974e-05
-1.89839e-06
-1.90928e-06
1.15932e-06
1.41971e-06
5.29379e-05
-1.53239e-06
7.84116e-07
1.3864e-06
5.6018e-05
-1.62467e-06
3.96728e-07
1.34952e-06
5.8095e-05
-1.5956e-06
8.18143e-09
1.33268e-06
5.91402e-05
-1.58808e-06
-3.81099e-07
1.3322e-06
5.91399e-05
-1.58791e-06
-7.70744e-07
1.34783e-06
5.80941e-05
-1.59409e-06
-1.14879e-06
1.38371e-06
5.60166e-05
-1.62404e-06
-1.62538e-06
1.41658e-06
5.29361e-05
-1.52867e-06
1.63713e-06
4.88953e-05
-1.90368e-06
-1.91057e-06
1.41501e-06
1.1616e-06
5.29381e-05
-1.53122e-06
1.10448e-06
1.10932e-06
5.66636e-05
7.64603e-07
1.0802e-06
5.95041e-05
3.92687e-07
1.05703e-06
6.14201e-05
7.77874e-09
1.04476e-06
6.23847e-05
-3.78286e-07
1.04396e-06
6.23844e-05
-7.51784e-07
1.05485e-06
6.14193e-05
-1.09327e-06
1.07629e-06
5.95028e-05
-1.40674e-06
1.10562e-06
5.66619e-05
1.16247e-06
5.29361e-05
-1.52128e-06
1.38264e-06
7.88297e-07
5.60184e-05
-1.62591e-06
1.0741e-06
7.6971e-07
5.95043e-05
7.38273e-07
7.4479e-07
6.21643e-05
3.78819e-07
7.2859e-07
6.39591e-05
6.90833e-09
7.20201e-07
6.48629e-05
-3.65407e-07
7.19441e-07
6.48626e-05
-7.2596e-07
7.25833e-07
6.39583e-05
-1.06381e-06
7.40136e-07
6.21631e-05
-1.37361e-06
7.65873e-07
5.95028e-05
7.85465e-07
5.60166e-05
-1.61532e-06
1.34514e-06
4.00164e-07
5.80954e-05
-1.59359e-06
1.05096e-06
3.97439e-07
6.14204e-05
7.21789e-07
3.84488e-07
6.39592e-05
3.69766e-07
3.76055e-07
6.56729e-05
6.14053e-09
3.71407e-07
6.65361e-05
-3.58019e-07
3.70425e-07
6.65359e-05
-7.11352e-07
3.73301e-07
6.56722e-05
-1.04197e-06
3.80551e-07
6.39581e-05
-1.33717e-06
3.93092e-07
6.14191e-05
3.95669e-07
5.80939e-05
-1.58548e-06
1.32818e-06
1.02449e-08
5.91406e-05
-1.58564e-06
1.03824e-06
1.09765e-08
6.2385e-05
7.13462e-07
1.16201e-08
6.4863e-05
3.65102e-07
1.12417e-08
6.65361e-05
5.19162e-09
1.04876e-08
6.7379e-05
-3.55064e-07
9.69047e-09
6.73788e-05
-7.04588e-07
8.75823e-09
6.65356e-05
-1.03078e-06
7.81055e-09
6.48622e-05
-1.32086e-06
6.94879e-09
6.23839e-05
6.04295e-09
5.91394e-05
-1.57881e-06
1.32739e-06
-3.7998e-07
5.91403e-05
-1.5847e-06
1.03799e-06
-3.75799e-07
6.23847e-05
7.12726e-07
-3.62003e-07
6.48627e-05
3.64402e-07
-3.53878e-07
6.65359e-05
4.49105e-09
-3.50959e-07
6.73788e-05
-3.5576e-07
-3.51713e-07
6.73787e-05
-7.05146e-07
-3.56187e-07
6.65355e-05
-1.03115e-06
-3.65247e-07
6.48621e-05
-1.3211e-06
-3.79636e-07
6.23839e-05
-3.83796e-07
5.91393e-05
-1.57892e-06
1.34342e-06
-7.70939e-07
5.80945e-05
-1.59142e-06
1.04902e-06
-7.5013e-07
6.14195e-05
7.19758e-07
-7.23319e-07
6.39584e-05
3.67469e-07
-7.08409e-07
6.56722e-05
3.90814e-09
-7.01606e-07
6.65356e-05
-3.6005e-07
-7.02335e-07
6.65355e-05
-7.13104e-07
-7.10487e-07
6.56719e-05
-1.04317e-06
-7.26318e-07
6.39579e-05
-1.33784e-06
-7.5341e-07
6.14189e-05
-7.74077e-07
5.80938e-05
-1.58594e-06
1.37974e-06
-1.14932e-06
5.60169e-05
-1.62089e-06
1.07098e-06
-1.0924e-06
5.9503e-05
7.3455e-07
-1.06195e-06
6.21631e-05
3.75195e-07
-1.04023e-06
6.39581e-05
3.34844e-09
-1.02907e-06
6.48621e-05
-3.68925e-07
-1.02991e-06
6.4862e-05
-7.28779e-07
-1.04182e-06
6.39579e-05
-1.06592e-06
-1.06468e-06
6.21628e-05
-1.3749e-06
-1.095e-06
5.95025e-05
-1.15219e-06
5.60164e-05
-1.61616e-06
1.41243e-06
-1.62619e-06
5.29363e-05
-1.52679e-06
1.10087e-06
-1.40608e-06
5.6662e-05
7.60473e-07
-1.3729e-06
5.95028e-05
3.88512e-07
-1.33639e-06
6.1419e-05
2.73029e-09
-1.32058e-06
6.23839e-05
-3.82712e-07
-1.32091e-06
6.23838e-05
-7.5594e-07
-1.33791e-06
6.14188e-05
-1.09646e-06
-1.37468e-06
5.95025e-05
-1.40887e-06
-1.408e-06
5.66616e-05
-1.62842e-06
5.29359e-05
-1.52273e-06
1.6325e-06
4.88955e-05
-1.9033e-06
-1.90889e-06
1.15749e-06
5.29362e-05
-1.52182e-06
7.80719e-07
5.60166e-05
-1.61559e-06
3.91551e-07
5.80939e-05
-1.58616e-06
2.63425e-09
5.91393e-05
-1.57948e-06
-3.86616e-07
5.91392e-05
-1.58004e-06
-7.76367e-07
5.80937e-05
-1.58698e-06
-1.15382e-06
5.60163e-05
-1.61713e-06
-1.63005e-06
5.29359e-05
-1.52274e-06
4.88951e-05
-1.9062e-06
-1.90513e-06
1.13675e-06
1.14274e-06
4.92918e-05
-1.32988e-06
-1.34137e-06
8.30135e-07
1.02656e-06
5.3365e-05
-1.14526e-06
5.69049e-07
1.03659e-06
5.64707e-05
-1.2255e-06
2.87935e-07
1.0122e-06
5.8565e-05
-1.1982e-06
1.028e-08
1.00642e-06
5.96191e-05
-1.20444e-06
-2.66651e-07
1.005e-06
5.96192e-05
-1.20431e-06
-5.46614e-07
1.00904e-06
5.85654e-05
-1.19662e-06
-8.10394e-07
1.03341e-06
5.64713e-05
-1.22279e-06
-1.12461e-06
1.02325e-06
5.3366e-05
-1.13629e-06
1.1399e-06
4.9293e-05
-1.32471e-06
-1.33434e-06
1.01805e-06
8.36351e-07
5.33652e-05
-1.13685e-06
7.91152e-07
7.98653e-07
5.71198e-05
5.54978e-07
7.96315e-07
5.99825e-05
2.87289e-07
7.88603e-07
6.19136e-05
1.00176e-08
7.85253e-07
6.28859e-05
-2.68644e-07
7.84121e-07
6.2886e-05
-5.39526e-07
7.86711e-07
6.1914e-05
-7.79137e-07
7.94625e-07
5.99831e-05
-1.01002e-06
7.95153e-07
5.71207e-05
8.27361e-07
5.3366e-05
-1.12498e-06
1.02869e-06
5.74043e-07
5.6471e-05
-1.21756e-06
7.88168e-07
5.61629e-07
5.99827e-05
5.40378e-07
5.4804e-07
6.2662e-05
2.78159e-07
5.41807e-07
6.44701e-05
8.58187e-09
5.3898e-07
6.53806e-05
-2.62123e-07
5.38671e-07
6.53807e-05
-5.27086e-07
5.40864e-07
6.44703e-05
-7.77445e-07
5.45638e-07
6.26624e-05
-1.01891e-06
5.57172e-07
5.99831e-05
5.64416e-07
5.64713e-05
-1.20879e-06
1.00313e-06
2.90733e-07
5.85653e-05
-1.18836e-06
7.80091e-07
2.92141e-07
6.19139e-05
5.33999e-07
2.84228e-07
6.44702e-05
2.74053e-07
2.80625e-07
6.61957e-05
7.32562e-09
2.78752e-07
6.70649e-05
-2.6023e-07
2.7832e-07
6.70649e-05
-5.2164e-07
2.79248e-07
6.61957e-05
-7.68575e-07
2.81033e-07
6.44702e-05
-9.93171e-07
2.8682e-07
6.19139e-05
2.83627e-07
5.85652e-05
-1.18197e-06
9.97112e-07
1.14376e-08
5.96194e-05
-1.1952e-06
7.75888e-07
1.28076e-08
6.28862e-05
5.30777e-07
1.29613e-08
6.53808e-05
2.7205e-07
1.20947e-08
6.7065e-05
6.47248e-09
1.14208e-08
6.79134e-05
-2.59382e-07
1.08996e-08
6.79133e-05
-5.19039e-07
9.99284e-09
6.70648e-05
-7.65401e-07
8.91752e-09
6.53806e-05
-9.8809e-07
7.71356e-09
6.28859e-05
6.43637e-09
5.96191e-05
-1.18895e-06
9.9562e-07
-2.66549e-07
5.96195e-05
-1.19517e-06
7.75116e-07
-2.67054e-07
6.28863e-05
5.30401e-07
-2.59395e-07
6.53809e-05
2.71817e-07
-2.56865e-07
6.7065e-05
6.0406e-09
-2.56028e-07
6.79134e-05
-2.60084e-07
-2.56866e-07
6.79133e-05
-5.19707e-07
-2.59403e-07
6.70648e-05
-7.65988e-07
-2.63434e-07
6.53806e-05
-9.88432e-07
-2.71647e-07
6.28859e-05
-2.70908e-07
5.96191e-05
-1.18926e-06
1.0004e-06
-5.47899e-07
5.85656e-05
-1.18851e-06
7.78085e-07
-5.38748e-07
6.19143e-05
5.33185e-07
-5.25406e-07
6.44706e-05
2.73032e-07
-5.19543e-07
6.61959e-05
5.48778e-09
-5.1704e-07
6.7065e-05
-2.6239e-07
-5.17904e-07
6.70649e-05
-5.23822e-07
-5.22241e-07
6.61957e-05
-7.70233e-07
-5.29156e-07
6.44702e-05
-9.94254e-07
-5.42853e-07
6.19138e-05
-5.51819e-07
5.85652e-05
-1.18299e-06
1.02598e-06
-8.11614e-07
5.64716e-05
-1.21503e-06
7.86795e-07
-7.79237e-07
5.99835e-05
5.3883e-07
-7.76407e-07
6.26628e-05
2.75346e-07
-7.67764e-07
6.44705e-05
4.88625e-09
-7.647e-07
6.53808e-05
-2.6618e-07
-7.65713e-07
6.53807e-05
-5.30567e-07
-7.69951e-07
6.44703e-05
-7.80133e-07
-7.79924e-07
6.26624e-05
-1.02061e-06
-7.82444e-07
5.99831e-05
-8.15366e-07
5.64713e-05
-1.21029e-06
1.01619e-06
-1.12608e-06
5.33663e-05
-1.13066e-06
7.88612e-07
-1.01014e-06
5.7121e-05
5.50905e-07
-1.01906e-06
5.99835e-05
2.8216e-07
-9.93384e-07
6.19142e-05
4.16811e-09
-9.8878e-07
6.28862e-05
-2.73763e-07
-9.89277e-07
6.28861e-05
-5.44195e-07
-9.95242e-07
6.1914e-05
-7.82848e-07
-1.02128e-06
5.99831e-05
-1.01236e-06
-1.01221e-06
5.71206e-05
-1.12876e-06
5.3366e-05
-1.12711e-06
1.13282e-06
4.92934e-05
-1.32495e-06
-1.32937e-06
8.21112e-07
5.33664e-05
-1.12687e-06
5.59278e-07
5.64716e-05
-1.21037e-06
2.79905e-07
5.85656e-05
-1.18397e-06
3.91494e-09
5.96194e-05
-1.19093e-06
-2.7248e-07
5.96193e-05
-1.19156e-06
-5.528e-07
5.85654e-05
-1.18513e-06
-8.15868e-07
5.64714e-05
-1.21213e-06
-1.13e-06
5.33661e-05
-1.12761e-06
4.92931e-05
-1.32751e-06
-1.32623e-06
7.97967e-07
8.0662e-07
4.95619e-05
-9.25002e-07
-9.34561e-07
6.11599e-07
7.46533e-07
5.3662e-05
-8.47725e-07
4.25338e-07
7.64089e-07
5.67887e-05
-8.86256e-07
2.18227e-07
7.45474e-07
5.88971e-05
-8.61899e-07
1.49653e-08
7.45271e-07
5.99583e-05
-8.73827e-07
-1.87049e-07
7.42963e-07
5.99582e-05
-8.73794e-07
-3.9182e-07
7.39489e-07
5.88969e-05
-8.60434e-07
-5.79518e-07
7.57891e-07
5.67885e-05
-8.83928e-07
-7.7122e-07
7.37769e-07
5.36623e-05
-8.3789e-07
7.89021e-07
4.95627e-05
-9.07154e-07
-9.17166e-07
7.3669e-07
6.19739e-07
5.36623e-05
-8.3771e-07
5.78086e-07
5.87363e-07
5.74428e-05
4.11925e-07
5.92585e-07
6.03257e-05
2.16763e-07
5.88377e-07
6.22705e-05
1.45767e-08
5.88628e-07
6.32497e-05
-1.89511e-07
5.86467e-07
6.32496e-05
-3.88597e-07
5.84427e-07
6.22703e-05
-5.59198e-07
5.88734e-07
6.03255e-05
-7.21912e-07
5.78874e-07
5.74426e-05
5.99782e-07
5.3662e-05
-8.25234e-07
7.54479e-07
4.30479e-07
5.67887e-05
-8.76493e-07
5.83034e-07
4.19434e-07
6.03257e-05
4.0453e-07
4.13149e-07
6.30245e-05
2.11514e-07
4.09803e-07
6.48458e-05
1.22153e-08
4.08663e-07
6.5763e-05
-1.88526e-07
4.07778e-07
6.5763e-05
-3.85496e-07
4.07716e-07
6.48456e-05
-5.67099e-07
4.08991e-07
6.30241e-05
-7.39622e-07
4.10949e-07
6.0325e-05
4.14036e-07
5.67877e-05
-8.67713e-07
7.34353e-07
2.20545e-07
5.88968e-05
-8.50708e-07
5.78667e-07
2.21956e-07
6.22704e-05
4.0115e-07
2.17881e-07
6.48458e-05
2.09253e-07
2.16332e-07
6.65843e-05
1.03852e-08
2.15342e-07
6.746e-05
-1.89753e-07
2.1444e-07
6.74599e-05
-3.83468e-07
2.14034e-07
6.65839e-05
-5.61409e-07
2.12937e-07
6.48451e-05
-7.19331e-07
2.13276e-07
6.22694e-05
2.09845e-07
5.88956e-05
-8.43183e-07
7.34565e-07
1.57749e-08
5.99579e-05
-8.64645e-07
5.77867e-07
1.73148e-08
6.32495e-05
3.99689e-07
1.70606e-08
6.5763e-05
2.08064e-07
1.557e-08
6.746e-05
9.18962e-09
1.4772e-08
6.83149e-05
-1.90051e-07
1.39792e-08
6.83147e-05
-3.82894e-07
1.26572e-08
6.74595e-05
-5.62862e-07
1.1275e-08
6.57622e-05
-7.21366e-07
9.92082e-09
6.32483e-05
8.33494e-09
5.99566e-05
-8.55359e-07
7.32648e-07
-1.86045e-07
5.99577e-05
-8.64799e-07
5.76777e-07
-1.87026e-07
6.32493e-05
3.98805e-07
-1.85165e-07
6.57628e-05
2.07486e-07
-1.85476e-07
6.74598e-05
8.46158e-09
-1.85814e-07
6.83147e-05
-1.91125e-07
-1.8688e-07
6.83145e-05
-3.83875e-07
-1.88745e-07
6.74593e-05
-5.63551e-07
-1.90392e-07
6.57619e-05
-7.21864e-07
-1.93876e-07
6.32481e-05
-1.93193e-07
5.99564e-05
-8.55645e-07
7.30284e-07
-3.90987e-07
5.88962e-05
-8.53159e-07
5.75066e-07
-3.86374e-07
6.22699e-05
3.99655e-07
-3.82603e-07
6.48453e-05
2.07337e-07
-3.80369e-07
6.65838e-05
7.5026e-09
-3.79812e-07
6.74594e-05
-1.92778e-07
-3.80828e-07
6.74592e-05
-3.86435e-07
-3.83562e-07
6.65833e-05
-5.63868e-07
-3.87645e-07
6.48445e-05
-7.2062e-07
-3.92189e-07
6.22689e-05
-3.97505e-07
5.88951e-05
-8.44255e-07
7.49992e-07
-5.77218e-07
5.67878e-05
-8.76361e-07
5.80494e-07
-5.57463e-07
6.0325e-05
4.01812e-07
-5.64702e-07
6.30238e-05
2.06805e-07
-5.59609e-07
6.48449e-05
6.59986e-09
-5.61003e-07
6.5762e-05
-1.94234e-07
-5.62104e-07
6.57619e-05
-3.90344e-07
-5.62197e-07
6.48445e-05
-5.70492e-07
-5.69008e-07
6.30231e-05
-7.41513e-07
-5.6209e-07
6.03241e-05
-5.83715e-07
5.67869e-05
-8.68845e-07
7.29914e-07
-7.69351e-07
5.36616e-05
-8.32153e-07
5.72091e-07
-7.20326e-07
5.74421e-05
4.04222e-07
-7.38619e-07
6.03247e-05
2.08232e-07
-7.18423e-07
6.22692e-05
5.62807e-09
-7.20986e-07
6.32482e-05
-1.96879e-07
-7.21523e-07
6.3248e-05
-3.94627e-07
-7.20427e-07
6.22688e-05
-5.63489e-07
-7.41159e-07
6.03241e-05
-7.2364e-07
-7.22887e-07
5.74414e-05
-7.73824e-07
5.36609e-05
-8.26455e-07
7.80478e-07
4.95621e-05
-9.05042e-07
-9.0972e-07
5.92979e-07
5.36615e-05
-8.257e-07
4.08461e-07
5.67874e-05
-8.67428e-07
2.05606e-07
5.88954e-05
-8.43517e-07
5.20019e-09
5.99564e-05
-8.55628e-07
-1.9553e-07
5.99563e-05
-8.56413e-07
-3.99272e-07
5.88951e-05
-8.44966e-07
-5.84917e-07
5.67869e-05
-8.69664e-07
-7.75313e-07
5.36609e-05
-8.26432e-07
4.95615e-05
-9.07762e-07
-9.06212e-07
6.36012e-07
6.3828e-07
4.9773e-05
-7.40271e-07
-7.45661e-07
5.05342e-07
5.96671e-07
5.38935e-05
-6.98806e-07
3.49806e-07
5.98542e-07
5.70359e-05
-6.90768e-07
1.78403e-07
5.76066e-07
5.91549e-05
-6.63143e-07
1.04528e-08
5.74239e-07
6.02215e-05
-6.69598e-07
-1.56704e-07
5.72179e-07
6.02214e-05
-6.68768e-07
-3.24953e-07
5.70267e-07
5.91547e-05
-6.59394e-07
-4.80351e-07
5.91978e-07
5.70358e-05
-6.8565e-07
-6.12192e-07
5.85907e-07
5.38941e-05
-6.87126e-07
6.1733e-07
4.97745e-05
-7.20068e-07
-7.21409e-07
5.91836e-07
5.05283e-07
5.38938e-05
-6.91142e-07
4.66524e-07
4.70002e-07
5.76942e-05
3.30789e-07
4.67604e-07
6.05926e-05
1.72864e-07
4.56399e-07
6.2548e-05
1.03687e-08
4.54648e-07
6.35325e-05
-1.53155e-07
4.52826e-07
6.35324e-05
-3.13655e-07
4.52581e-07
6.25478e-05
-4.52587e-07
4.63656e-07
6.05924e-05
-5.81181e-07
4.61422e-07
5.76941e-05
4.88379e-07
5.3894e-05
-6.83329e-07
5.93463e-07
3.46958e-07
5.7036e-05
-6.83387e-07
4.63489e-07
3.32271e-07
6.05927e-05
3.22875e-07
3.25772e-07
6.33067e-05
1.68068e-07
3.18649e-07
6.51386e-05
8.44067e-09
3.16269e-07
6.60613e-05
-1.52114e-07
3.15234e-07
6.60613e-05
-3.09825e-07
3.1696e-07
6.51385e-05
-4.52414e-07
3.2276e-07
6.33065e-05
-5.83834e-07
3.25241e-07
6.05922e-05
3.35708e-07
5.70355e-05
-6.77742e-07
5.70455e-07
1.74535e-07
5.91549e-05
-6.56448e-07
4.52251e-07
1.72374e-07
6.25481e-05
3.15702e-07
1.69245e-07
6.51387e-05
1.64666e-07
1.66468e-07
6.68878e-05
7.17873e-09
1.65246e-07
6.7769e-05
-1.51154e-07
1.64581e-07
6.7769e-05
-3.03506e-07
1.65006e-07
6.68876e-05
-4.40275e-07
1.65908e-07
6.51383e-05
-5.60307e-07
1.66725e-07
6.25474e-05
1.68911e-07
5.9154e-05
-6.50642e-07
5.69853e-07
6.8378e-09
6.02215e-05
-6.65801e-07
4.50145e-07
8.74856e-09
6.35327e-05
3.12927e-07
8.40468e-09
6.60615e-05
1.63164e-07
7.71521e-09
6.77691e-05
6.70238e-09
7.7239e-09
6.86295e-05
-1.50335e-07
7.26725e-09
6.86294e-05
-3.01486e-07
6.46405e-09
6.77688e-05
-4.40344e-07
5.61111e-09
6.60609e-05
-5.61786e-07
4.44785e-09
6.35318e-05
2.95463e-09
6.02206e-05
-6.58359e-07
5.6878e-07
-1.59359e-07
6.02215e-05
-6.65548e-07
4.49463e-07
-1.54797e-07
6.35327e-05
3.1238e-07
-1.52767e-07
6.60616e-05
1.62782e-07
-1.51021e-07
6.77692e-05
6.23953e-09
-1.49962e-07
6.86296e-05
-1.50897e-07
-1.50201e-07
6.86294e-05
-3.02024e-07
-1.52061e-07
6.77688e-05
-4.40908e-07
-1.54876e-07
6.60608e-05
-5.62194e-07
-1.5792e-07
6.35318e-05
-1.62977e-07
6.02206e-05
-6.58819e-07
5.67958e-07
-3.27226e-07
5.9155e-05
-6.58078e-07
4.50011e-07
-3.1481e-07
6.25482e-05
3.14999e-07
-3.10467e-07
6.5139e-05
1.63714e-07
-3.03748e-07
6.68881e-05
5.83588e-09
-3.01238e-07
6.77691e-05
-1.52611e-07
-3.01438e-07
6.77689e-05
-3.0536e-07
-3.04672e-07
6.68875e-05
-4.42057e-07
-3.12093e-07
6.51382e-05
-5.61694e-07
-3.17084e-07
6.25473e-05
-3.29843e-07
5.9154e-05
-6.52199e-07
5.91392e-07
-4.80956e-07
5.70364e-05
-6.8459e-07
4.62669e-07
-4.53813e-07
6.05931e-05
3.22111e-07
-4.52943e-07
6.33071e-05
1.65606e-07
-4.40864e-07
6.51389e-05
5.60442e-09
-4.40305e-07
6.60613e-05
-1.5523e-07
-4.40848e-07
6.60611e-05
-3.12664e-07
-4.41212e-07
6.51383e-05
-4.54977e-07
-4.54292e-07
6.33062e-05
-5.85646e-07
-4.54553e-07
6.0592e-05
-4.82665e-07
5.70354e-05
-6.79801e-07
5.86863e-07
-6.12176e-07
5.3895e-05
-6.88834e-07
4.62705e-07
-5.8204e-07
5.76951e-05
3.25929e-07
-5.84828e-07
6.0593e-05
1.67844e-07
-5.60919e-07
6.25481e-05
5.0763e-09
-5.62345e-07
6.35324e-05
-1.5707e-07
-5.62198e-07
6.35322e-05
-3.17251e-07
-5.61414e-07
6.25475e-05
-4.54997e-07
-5.84729e-07
6.05921e-05
-5.82254e-07
-5.8089e-07
5.76939e-05
-6.11684e-07
5.3894e-05
-6.85452e-07
6.18318e-07
4.97756e-05
-7.20782e-07
-7.2114e-07
4.90557e-07
5.38951e-05
-6.86648e-07
3.38113e-07
5.70364e-05
-6.79746e-07
1.71307e-07
5.91549e-05
-6.52475e-07
5.29252e-09
6.02212e-05
-6.59445e-07
-1.61113e-07
6.0221e-05
-6.59871e-07
-3.2859e-07
5.91543e-05
-6.52285e-07
-4.8226e-07
5.70355e-05
-6.79321e-07
-6.13345e-07
5.38939e-05
-6.83352e-07
4.97744e-05
-7.20026e-07
-7.16111e-07
6.20593e-07
6.15136e-07
4.99837e-05
-7.22032e-07
-7.18296e-07
4.95966e-07
5.78767e-07
5.41228e-05
-6.79363e-07
3.38782e-07
5.66991e-07
5.72796e-05
-6.50137e-07
1.70807e-07
5.42422e-07
5.94083e-05
-6.24761e-07
3.40708e-09
5.38728e-07
6.048e-05
-6.27343e-07
-1.64095e-07
5.38516e-07
6.04801e-05
-6.27503e-07
-3.31342e-07
5.41181e-07
5.94089e-05
-6.26506e-07
-4.87423e-07
5.67557e-07
5.72811e-05
-6.54026e-07
-6.09302e-07
5.77592e-07
5.41257e-05
-6.84676e-07
6.10608e-07
4.99877e-05
-7.16521e-07
-7.13185e-07
5.81706e-07
4.92301e-07
5.41234e-05
-6.84415e-07
4.58519e-07
4.57151e-07
5.7941e-05
3.19892e-07
4.46906e-07
6.08531e-05
1.6469e-07
4.29214e-07
6.28177e-05
4.73508e-09
4.24929e-07
6.3807e-05
-1.55127e-07
4.24428e-07
6.38071e-05
-3.11567e-07
4.27895e-07
6.28182e-05
-4.51669e-07
4.46667e-07
6.0854e-05
-5.7639e-07
4.55264e-07
5.79426e-05
4.89892e-07
5.41254e-05
-6.8576e-07
5.68647e-07
3.3645e-07
5.72802e-05
-6.53314e-07
4.47965e-07
3.19278e-07
6.08534e-05
3.11765e-07
3.11293e-07
6.35803e-05
1.60439e-07
2.99689e-07
6.54209e-05
4.10586e-09
2.95571e-07
6.6348e-05
-1.52287e-07
2.94596e-07
6.63481e-05
-3.04953e-07
2.98631e-07
6.54212e-05
-4.4181e-07
3.10345e-07
6.35807e-05
-5.63725e-07
3.16543e-07
6.08538e-05
3.35056e-07
5.72806e-05
-6.52926e-07
5.42982e-07
1.69986e-07
5.94087e-05
-6.2716e-07
4.29872e-07
1.64299e-07
6.2818e-05
3.00278e-07
1.60357e-07
6.5421e-05
1.55362e-07
1.5529e-07
6.71786e-05
3.80102e-09
1.53174e-07
6.8064e-05
-1.48162e-07
1.52344e-07
6.80641e-05
-2.93577e-07
1.53868e-07
6.71786e-05
-4.23157e-07
1.58124e-07
6.5421e-05
-5.37361e-07
1.61299e-07
6.28177e-05
1.69455e-07
5.94084e-05
-6.2504e-07
5.39291e-07
4.28569e-09
6.04802e-05
-6.29841e-07
4.25023e-07
5.75721e-09
6.38072e-05
2.95551e-07
4.89782e-09
6.63481e-05
1.52931e-07
4.39191e-09
6.80641e-05
3.6447e-09
4.4024e-09
6.89287e-05
-1.46148e-07
3.79899e-09
6.89286e-05
-2.89769e-07
3.21492e-09
6.80639e-05
-4.20591e-07
2.85988e-09
6.63478e-05
-5.3559e-07
2.55498e-09
6.38066e-05
1.73434e-09
6.04795e-05
-6.25934e-07
5.39033e-07
-1.61524e-07
6.04801e-05
-6.29089e-07
4.24744e-07
-1.52761e-07
6.38072e-05
2.94714e-07
-1.50295e-07
6.63482e-05
1.51979e-07
-1.46519e-07
6.80641e-05
2.97602e-09
-1.44687e-07
6.89287e-05
-1.46612e-07
-1.45128e-07
6.89286e-05
-2.90038e-07
-1.4762e-07
6.80638e-05
-4.20591e-07
-1.52386e-07
6.63477e-05
-5.35611e-07
-1.56443e-07
6.38065e-05
-1.65833e-07
6.04794e-05
-6.25852e-07
5.41335e-07
-3.26979e-07
5.94088e-05
-6.27839e-07
4.27808e-07
-3.08031e-07
6.28181e-05
2.98479e-07
-3.02179e-07
6.54212e-05
1.53506e-07
-2.91486e-07
6.71787e-05
2.22358e-09
-2.88032e-07
6.8064e-05
-1.4901e-07
-2.88394e-07
6.80639e-05
-2.94242e-07
-2.92567e-07
6.71783e-05
-4.23946e-07
-3.04877e-07
6.54206e-05
-5.37485e-07
-3.11864e-07
6.28175e-05
-3.31549e-07
5.94081e-05
-6.25078e-07
5.67055e-07
-4.81785e-07
5.72809e-05
-6.54519e-07
4.46559e-07
-4.47778e-07
6.08539e-05
3.10066e-07
-4.38949e-07
6.35806e-05
1.57589e-07
-4.2108e-07
6.5421e-05
1.80166e-09
-4.1879e-07
6.63478e-05
-1.53861e-07
-4.19037e-07
6.63477e-05
-3.06491e-07
-4.22477e-07
6.54207e-05
-4.4265e-07
-4.414e-07
6.35801e-05
-5.63845e-07
-4.51474e-07
6.08533e-05
-4.86435e-07
5.72803e-05
-6.52596e-07
5.77447e-07
-6.03863e-07
5.41254e-05
-6.85025e-07
4.55201e-07
-5.72984e-07
5.79425e-05
3.1638e-07
-5.60998e-07
6.08537e-05
1.606e-07
-5.35303e-07
6.28177e-05
1.56629e-09
-5.33844e-07
6.38066e-05
-1.57906e-07
-5.344e-07
6.38065e-05
-3.13143e-07
-5.36383e-07
6.28175e-05
-4.52426e-07
-5.63332e-07
6.08533e-05
-5.75208e-07
-5.75455e-07
5.7942e-05
-6.07474e-07
5.41249e-05
-6.84329e-07
6.08888e-07
4.99875e-05
-7.12049e-07
-7.10859e-07
4.8954e-07
5.41253e-05
-6.82712e-07
3.34861e-07
5.72806e-05
-6.49578e-07
1.69107e-07
5.94084e-05
-6.22055e-07
9.99303e-10
6.04795e-05
-6.23378e-07
-1.66911e-07
6.04794e-05
-6.23832e-07
-3.32723e-07
5.94082e-05
-6.23604e-07
-4.87512e-07
5.72803e-05
-6.51854e-07
-6.07289e-07
5.4125e-05
-6.85002e-07
4.99872e-05
-7.12616e-07
-7.13159e-07
6.45849e-07
6.40248e-07
5.02028e-05
-7.59461e-07
-7.52021e-07
5.11368e-07
6.03758e-07
5.43606e-05
-7.12092e-07
3.4763e-07
5.8561e-07
5.75322e-05
-6.79354e-07
1.75195e-07
5.60386e-07
5.9671e-05
-6.55496e-07
1.31571e-09
5.54423e-07
6.0748e-05
-6.52718e-07
-1.73719e-07
5.54319e-07
6.07484e-05
-6.5157e-07
-3.46263e-07
5.58633e-07
5.96726e-05
-6.53143e-07
-5.09745e-07
5.83602e-07
5.75353e-05
-6.76956e-07
-6.41388e-07
5.99159e-07
5.43657e-05
-7.10948e-07
6.35094e-07
5.0209e-05
-7.56593e-07
-7.43841e-07
6.07959e-07
5.06905e-07
5.43613e-05
-7.16502e-07
4.78489e-07
4.74869e-07
5.81965e-05
3.30493e-07
4.6144e-07
6.11225e-05
1.68592e-07
4.40618e-07
6.30967e-05
1.71018e-09
4.34503e-07
6.4091e-05
-1.64389e-07
4.34169e-07
6.40914e-05
-3.26346e-07
4.38459e-07
6.30981e-05
-4.7514e-07
4.5912e-07
6.11251e-05
-6.06024e-07
4.7156e-07
5.82003e-05
5.0668e-07
5.43658e-05
-7.1925e-07
5.89077e-07
3.43309e-07
5.75328e-05
-6.81544e-07
4.65661e-07
3.26739e-07
6.11229e-05
3.2321e-07
3.18842e-07
6.38629e-05
1.64775e-07
3.05313e-07
6.57125e-05
9.08967e-10
3.0034e-07
6.66444e-05
-1.62454e-07
2.9891e-07
6.66448e-05
-3.2106e-07
3.03299e-07
6.57137e-05
-4.63632e-07
3.16997e-07
6.38648e-05
-5.88597e-07
3.23863e-07
6.11253e-05
3.44497e-07
5.75356e-05
-6.81864e-07
5.64563e-07
1.71966e-07
5.96716e-05
-6.58249e-07
4.45331e-07
1.64947e-07
6.30971e-05
3.10161e-07
1.60973e-07
6.57127e-05
1.58899e-07
1.54797e-07
6.74789e-05
7.39328e-10
1.52306e-07
6.83689e-05
-1.57353e-07
1.51295e-07
6.83692e-05
-3.08888e-07
1.52959e-07
6.74798e-05
-4.44372e-07
1.58809e-07
6.5714e-05
-5.64121e-07
1.62909e-07
6.30986e-05