/*--------------------------------*- C++ -*----------------------------------*\
| =========                 |                                                 |
| \\      /  F ield         | OpenFOAM: The Open Source CFD Toolbox           |
|  \\    /   O peration     | Version:  2406                                  |
|   \\  /    A nd           | Website:  www.openfoam.com                      |
|    \\/     M anipulation  |                                                 |
\*---------------------------------------------------------------------------*/
FoamFile
{
    version     2.0;
    format      ascii;
    arch        "LSB;label=32;scalar=64";
    class       volSymmTensorField;
    location    "100";
    object      turbulenceProperties:R;
}
// * * * * * * * * * * * * * * * * * * * * * * * * * * * * * * * * * * * * * //

dimensions      [0 2 -2 0 0 0 0];

internalField   nonuniform List<symmTensor> 
25000
(
(2.62741e-05 -1.60261e-06 -5.95365e-07 2.63521e-05 -6.04809e-07 2.19669e-05)
(2.63134e-05 7.3184e-07 -4.22515e-07 2.47996e-05 -5.35661e-07 2.07739e-05)
(2.38724e-05 4.70839e-07 -2.99689e-07 2.32697e-05 -5.47249e-07 1.89542e-05)
(2.32648e-05 2.88795e-07 -1.81489e-07 2.30186e-05 -5.48344e-07 1.85357e-05)
(2.29748e-05 1.07594e-07 -6.35027e-08 2.29073e-05 -5.47828e-07 1.83452e-05)
(2.29698e-05 -8.14147e-08 5.41984e-08 2.29256e-05 -5.47598e-07 1.8349e-05)
(2.32339e-05 -2.54015e-07 1.71485e-07 2.30635e-05 -5.46787e-07 1.85333e-05)
(2.37666e-05 -4.14909e-07 2.9032e-07 2.33027e-05 -5.44213e-07 1.88982e-05)
(2.62964e-05 -6.89676e-07 4.13809e-07 2.49345e-05 -5.28284e-07 2.07691e-05)
(2.66111e-05 1.49196e-06 5.91766e-07 2.6608e-05 -5.94041e-07 2.20249e-05)
(2.48448e-05 7.08608e-07 -5.26037e-07 2.64145e-05 -4.28321e-07 2.08315e-05)
(2.51829e-05 5.58258e-07 -4.13829e-07 2.52282e-05 -4.21724e-07 2.02657e-05)
(2.29468e-05 3.74493e-07 -3.09876e-07 2.30077e-05 -4.27387e-07 1.84074e-05)
(2.17678e-05 2.21157e-07 -1.90034e-07 2.18027e-05 -4.32599e-07 1.74101e-05)
(2.11931e-05 8.441e-08 -6.63704e-08 2.12113e-05 -4.35199e-07 1.69218e-05)
(2.1172e-05 -4.59774e-08 5.81639e-08 2.11915e-05 -4.34597e-07 1.69035e-05)
(2.16876e-05 -1.75031e-07 1.82334e-07 2.17229e-05 -4.30156e-07 1.73393e-05)
(2.27853e-05 -3.12218e-07 3.03948e-07 2.28384e-05 -4.22549e-07 1.82588e-05)
(2.48995e-05 -4.74674e-07 4.10203e-07 2.48857e-05 -4.13653e-07 1.99893e-05)
(2.48679e-05 -6.87786e-07 5.25958e-07 2.62164e-05 -4.17402e-07 2.07091e-05)
(2.33615e-05 4.28754e-07 -5.42739e-07 2.39582e-05 -3.01514e-07 1.9012e-05)
(2.30347e-05 3.56338e-07 -4.21062e-07 2.30136e-05 -3.14885e-07 1.84391e-05)
(2.12952e-05 2.49772e-07 -3.11866e-07 2.13153e-05 -3.17538e-07 1.70218e-05)
(2.02581e-05 1.54564e-07 -1.91532e-07 2.02773e-05 -3.18341e-07 1.61633e-05)
(1.97464e-05 6.09892e-08 -6.64434e-08 1.97603e-05 -3.18596e-07 1.57353e-05)
(1.9731e-05 -2.99191e-08 6.0166e-08 1.97404e-05 -3.17669e-07 1.57198e-05)
(2.02037e-05 -1.20656e-07 1.86216e-07 2.02072e-05 -3.15511e-07 1.6109e-05)
(2.11867e-05 -2.11331e-07 3.08202e-07 2.11752e-05 -3.12454e-07 1.69151e-05)
(2.28339e-05 -3.14211e-07 4.18737e-07 2.2755e-05 -3.08029e-07 1.82471e-05)
(2.32452e-05 -4.14243e-07 5.41758e-07 2.36965e-05 -2.94907e-07 1.88465e-05)
(2.30894e-05 2.6862e-07 -5.45636e-07 2.33134e-05 -1.8175e-07 1.85791e-05)
(2.1827e-05 2.03127e-07 -4.2789e-07 2.18056e-05 -1.92494e-07 1.74321e-05)
(2.02788e-05 1.47995e-07 -3.13372e-07 2.02825e-05 -1.95334e-07 1.61723e-05)
(1.92708e-05 9.4269e-08 -1.91672e-07 1.92806e-05 -1.95855e-07 1.5345e-05)
(1.87702e-05 3.89266e-08 -6.58509e-08 1.87782e-05 -1.95517e-07 1.49308e-05)
(1.87624e-05 -1.62013e-08 6.15372e-08 1.87648e-05 -1.94621e-07 1.49215e-05)
(1.92394e-05 -7.1143e-08 1.8829e-07 1.9233e-05 -1.93165e-07 1.53113e-05)
(2.02099e-05 -1.23986e-07 3.11211e-07 2.01874e-05 -1.91169e-07 1.61038e-05)
(2.17209e-05 -1.80551e-07 4.26622e-07 2.16605e-05 -1.87476e-07 1.73282e-05)
(2.3012e-05 -2.55678e-07 5.44224e-07 2.3163e-05 -1.768e-07 1.84837e-05)
(2.29607e-05 9.66835e-08 -5.46726e-07 2.30067e-05 -6.34404e-08 1.83786e-05)
(2.12493e-05 7.14314e-08 -4.31751e-07 2.12294e-05 -6.75831e-08 1.69504e-05)
(1.97684e-05 5.33879e-08 -3.14385e-07 1.97655e-05 -6.88252e-08 1.57452e-05)
(1.87765e-05 3.59889e-08 -1.91674e-07 1.87817e-05 -6.88739e-08 1.49342e-05)
(1.82858e-05 1.75431e-08 -6.52385e-08 1.82911e-05 -6.84259e-08 1.45298e-05)
(1.82812e-05 -1.26186e-09 6.26141e-08 1.82818e-05 -6.76492e-08 1.4524e-05)
(1.87601e-05 -2.02465e-08 1.89647e-07 1.87519e-05 -6.67233e-08 1.49152e-05)
(1.97327e-05 -3.8264e-08 3.13217e-07 1.97093e-05 -6.56997e-08 1.57077e-05)
(2.11785e-05 -5.71939e-08 4.30919e-07 2.1134e-05 -6.41035e-08 1.6883e-05)
(2.28843e-05 -8.74641e-08 5.44754e-07 2.28946e-05 -6.02049e-08 1.83018e-05)
(2.29558e-05 -8.63077e-08 -5.46705e-07 2.29865e-05 5.439e-08 1.83678e-05)
(2.12222e-05 -5.50151e-08 -4.32206e-07 2.11974e-05 5.75447e-08 1.69258e-05)
(1.97563e-05 -3.66553e-08 -3.14349e-07 1.97498e-05 5.86411e-08 1.57332e-05)
(1.87673e-05 -1.9791e-08 -1.91161e-07 1.87721e-05 5.93655e-08 1.4926e-05)
(1.82802e-05 -2.6184e-09 -6.46184e-08 1.82871e-05 6.01657e-08 1.45255e-05)
(1.82783e-05 1.41265e-08 6.32331e-08 1.82813e-05 6.06917e-08 1.45224e-05)
(1.87591e-05 3.06529e-08 1.90149e-07 1.87536e-05 6.08982e-08 1.49155e-05)
(1.97327e-05 4.62058e-08 3.13607e-07 1.97117e-05 6.07708e-08 1.57088e-05)
(2.1179e-05 6.30306e-08 4.31183e-07 2.11366e-05 5.983e-08 1.68843e-05)
(2.28889e-05 9.25432e-08 5.44858e-07 2.28998e-05 5.63684e-08 1.8306e-05)
(2.30864e-05 -2.57648e-07 -5.46641e-07 2.32475e-05 1.71697e-07 1.85481e-05)
(2.17567e-05 -1.81161e-07 -4.28301e-07 2.17143e-05 1.81959e-07 1.73638e-05)
(2.02247e-05 -1.25768e-07 -3.12757e-07 2.02211e-05 1.85253e-07 1.6123e-05)
(1.92418e-05 -7.45895e-08 -1.90223e-07 1.92523e-05 1.8684e-07 1.53197e-05)
(1.87556e-05 -2.20975e-08 -6.39207e-08 1.87689e-05 1.87886e-07 1.49197e-05)
(1.87551e-05 2.99425e-08 6.33483e-08 1.87657e-05 1.88229e-07 1.49185e-05)
(1.92359e-05 8.17363e-08 1.89796e-07 1.92381e-05 1.87803e-07 1.53121e-05)
(2.02089e-05 1.31771e-07 3.12334e-07 2.01945e-05 1.86576e-07 1.61066e-05)
(2.17225e-05 1.8616e-07 4.27381e-07 2.16685e-05 1.83445e-07 1.73324e-05)
(2.30259e-05 2.60688e-07 5.44528e-07 2.31787e-05 1.73108e-07 1.84961e-05)
(2.33155e-05 -4.16263e-07 -5.4397e-07 2.37744e-05 2.90493e-07 1.89063e-05)
(2.28601e-05 -3.16139e-07 -4.208e-07 2.28016e-05 3.03658e-07 1.82762e-05)
(2.11999e-05 -2.15189e-07 -3.10186e-07 2.12103e-05 3.07748e-07 1.69345e-05)
(2.02023e-05 -1.26865e-07 -1.88607e-07 2.02275e-05 3.10527e-07 1.61164e-05)
(1.97175e-05 -4.02129e-08 -6.31802e-08 1.97452e-05 3.12178e-07 1.57157e-05)
(1.97165e-05 4.50157e-08 6.30952e-08 1.97419e-05 3.12413e-07 1.57142e-05)
(2.01968e-05 1.31137e-07 1.88548e-07 2.02157e-05 3.10997e-07 1.611e-05)
(2.11853e-05 2.18776e-07 3.09951e-07 2.11875e-05 3.08528e-07 1.69202e-05)
(2.28355e-05 3.19168e-07 4.19921e-07 2.27678e-05 3.0448e-07 1.82534e-05)
(2.32669e-05 4.18946e-07 5.42217e-07 2.37221e-05 2.91541e-07 1.88663e-05)
(2.4936e-05 -6.88701e-07 -5.27844e-07 2.62934e-05 4.13815e-07 2.07679e-05)
(2.4918e-05 -4.76513e-07 -4.12291e-07 2.49269e-05 4.10415e-07 2.00135e-05)
(2.2791e-05 -3.1715e-07 -3.06245e-07 2.2869e-05 4.19212e-07 1.8274e-05)
(2.1677e-05 -1.83065e-07 -1.85179e-07 2.17393e-05 4.26526e-07 1.73421e-05)
(2.11447e-05 -5.91558e-08 -6.18182e-08 2.11927e-05 4.30653e-07 1.68929e-05)
(2.11435e-05 6.14103e-08 6.19503e-08 2.11897e-05 4.30725e-07 1.68913e-05)
(2.16732e-05 1.85005e-07 1.85284e-07 2.1731e-05 4.26756e-07 1.73376e-05)
(2.27792e-05 3.18729e-07 3.06182e-07 2.28507e-05 4.19496e-07 1.82623e-05)
(2.48996e-05 4.78778e-07 4.11704e-07 2.49011e-05 4.10811e-07 1.99963e-05)
(2.48964e-05 6.9107e-07 5.26542e-07 2.62515e-05 4.14599e-07 2.07362e-05)
(2.66333e-05 1.49551e-06 -5.92936e-07 2.66357e-05 5.91567e-07 2.20467e-05)
(2.62471e-05 -6.88773e-07 -4.15972e-07 2.48972e-05 5.26326e-07 2.07321e-05)
(2.37195e-05 -4.16642e-07 -2.92941e-07 2.3268e-05 5.41949e-07 1.88649e-05)
(2.3179e-05 -2.57968e-07 -1.74669e-07 2.30294e-05 5.44438e-07 1.84971e-05)
(2.2904e-05 -8.94762e-08 -5.81048e-08 2.28953e-05 5.44923e-07 1.831e-05)
(2.29054e-05 9.07852e-08 5.83185e-08 2.28964e-05 5.4499e-07 1.83111e-05)
(2.31793e-05 2.58916e-07 1.74815e-07 2.30282e-05 5.44548e-07 1.84971e-05)
(2.3719e-05 4.17122e-07 2.92898e-07 2.32655e-05 5.42115e-07 1.88641e-05)
(2.62515e-05 6.90027e-07 4.15662e-07 2.48964e-05 5.26418e-07 2.07351e-05)
(2.66059e-05 -1.49354e-06 5.92512e-07 2.66042e-05 5.92078e-07 2.20229e-05)
(3.58237e-05 -1.37649e-06 1.1759e-06 3.59226e-05 1.17526e-06 2.98006e-05)
(3.62695e-05 6.9096e-07 8.54425e-07 3.44447e-05 1.10763e-06 2.89685e-05)
(3.37196e-05 2.19991e-07 6.12113e-07 3.30464e-05 1.00759e-06 2.70006e-05)
(3.31483e-05 1.91139e-07 3.71668e-07 3.27619e-05 9.63412e-07 2.65492e-05)
(3.28656e-05 7.42491e-08 1.31375e-07 3.26135e-05 9.36411e-07 2.63201e-05)
(3.28469e-05 -5.74762e-08 -1.10404e-07 3.26183e-05 9.33831e-07 2.63113e-05)
(3.31409e-05 -1.68257e-07 -3.51084e-07 3.28208e-05 9.55321e-07 2.65582e-05)
(3.37441e-05 -1.83759e-07 -5.91056e-07 3.31955e-05 9.92907e-07 2.70433e-05)
(3.65761e-05 -6.79483e-07 -8.2828e-07 3.48392e-05 1.08662e-06 2.91938e-05)
(3.66044e-05 1.30791e-06 -1.15739e-06 3.66022e-05 1.15574e-06 3.02678e-05)
(3.45266e-05 6.51149e-07 1.10358e-06 3.64074e-05 8.53157e-07 2.90468e-05)
(3.40163e-05 4.34689e-07 8.13081e-07 3.40538e-05 8.11878e-07 2.74798e-05)
(3.26601e-05 2.1073e-07 5.59666e-07 3.26765e-05 7.6428e-07 2.62446e-05)
(3.21633e-05 1.12873e-07 3.34758e-07 3.20342e-05 7.29299e-07 2.57151e-05)
(3.18186e-05 4.45303e-08 1.14771e-07 3.16433e-05 7.07691e-07 2.53853e-05)
(3.18163e-05 -1.10543e-08 -1.03006e-07 3.16451e-05 7.04088e-07 2.53829e-05)
(3.2153e-05 -6.61506e-08 -3.22599e-07 3.2028e-05 7.18204e-07 2.57012e-05)
(3.2677e-05 -1.52595e-07 -5.45924e-07 3.26927e-05 7.48735e-07 2.6238e-05)
(3.39921e-05 -3.67647e-07 -7.92439e-07 3.3973e-05 7.90488e-07 2.74131e-05)
(3.47602e-05 -6.77779e-07 -1.08659e-06 3.64778e-05 8.25574e-07 2.91231e-05)
(3.32142e-05 1.72059e-07 1.00444e-06 3.38769e-05 6.0819e-07 2.71194e-05)
(3.27937e-05 1.87443e-07 7.66757e-07 3.28122e-05 5.57692e-07 2.63426e-05)
(3.15792e-05 1.71793e-07 5.2787e-07 3.16013e-05 5.24486e-07 2.52789e-05)
(3.11001e-05 1.09759e-07 3.11875e-07 3.10309e-05 4.99448e-07 2.4802e-05)
(3.08522e-05 4.68471e-08 1.04849e-07 3.07491e-05 4.85758e-07 2.45607e-05)
(3.08603e-05 -1.10845e-08 -9.91086e-08 3.07521e-05 4.83752e-07 2.4564e-05)
(3.11095e-05 -6.98969e-08 -3.05116e-07 3.10219e-05 4.93684e-07 2.47977e-05)
(3.15387e-05 -1.3051e-07 -5.16459e-07 3.15244e-05 5.15358e-07 2.5225e-05)
(3.26709e-05 -1.54525e-07 -7.48927e-07 3.26225e-05 5.43955e-07 2.62145e-05)
(3.3157e-05 -1.85091e-07 -9.9365e-07 3.36896e-05 5.90835e-07 2.70067e-05)
(3.28882e-05 1.67373e-07 9.62176e-07 3.32442e-05 3.67097e-07 2.66322e-05)
(3.21247e-05 8.90132e-08 7.30257e-07 3.22634e-05 3.31346e-07 2.57894e-05)
(3.1066e-05 9.88044e-08 5.02623e-07 3.11637e-05 3.08312e-07 2.48403e-05)
(3.05115e-05 7.14174e-08 2.957e-07 3.05257e-05 2.91985e-07 2.43117e-05)
(3.02372e-05 3.44599e-08 9.85944e-08 3.02092e-05 2.834e-07 2.40516e-05)
(3.02479e-05 -3.43953e-09 -9.49097e-08 3.02117e-05 2.82833e-07 2.4056e-05)
(3.05177e-05 -4.19065e-08 -2.90736e-07 3.0509e-05 2.90258e-07 2.4306e-05)
(3.10276e-05 -7.26951e-08 -4.94369e-07 3.10906e-05 3.04887e-07 2.47934e-05)
(3.20397e-05 -7.0143e-08 -7.19289e-07 3.21327e-05 3.23614e-07 2.56984e-05)
(3.28042e-05 -1.70445e-07 -9.55765e-07 3.31013e-05 3.53711e-07 2.65361e-05)
(3.27164e-05 6.15962e-08 9.36525e-07 3.29349e-05 1.26854e-07 2.63866e-05)
(3.1732e-05 2.73597e-08 7.09077e-07 3.18984e-05 1.11239e-07 2.54521e-05)
(3.07906e-05 3.45926e-08 4.88814e-07 3.0907e-05 1.0139e-07 2.45995e-05)
(3.02204e-05 2.92055e-08 2.87117e-07 3.02692e-05 9.50225e-08 2.40688e-05)
(2.99576e-05 1.8514e-08 9.57475e-08 2.9967e-05 9.20964e-08 2.38188e-05)
(2.99602e-05 5.75545e-09 -9.23132e-08 2.99621e-05 9.20395e-08 2.38177e-05)
(3.02167e-05 -8.11565e-09 -2.82914e-07 3.02452e-05 9.47144e-08 2.40575e-05)
(3.07624e-05 -1.89779e-08 -4.83409e-07 3.08516e-05 9.98712e-08 2.45646e-05)
(3.16537e-05 -1.8487e-08 -7.03421e-07 3.17933e-05 1.06166e-07 2.53767e-05)
(3.26126e-05 -6.08255e-08 -9.33393e-07 3.28033e-05 1.16903e-07 2.62912e-05)
(3.27003e-05 -6.5015e-08 9.34633e-07 3.29026e-05 -1.14074e-07 2.63658e-05)
(3.17141e-05 -2.32083e-08 7.05936e-07 3.18735e-05 -1.06037e-07 2.54337e-05)
(3.07988e-05 -2.17914e-08 4.86721e-07 3.09096e-05 -1.02103e-07 2.46033e-05)
(3.02285e-05 -9.75914e-09 2.86341e-07 3.0277e-05 -9.80267e-08 2.40755e-05)
(2.99649e-05 3.24327e-09 9.56426e-08 2.9978e-05 -9.55515e-08 2.38262e-05)
(2.99645e-05 1.39879e-08 -9.22576e-08 2.99715e-05 -9.55369e-08 2.38234e-05)
(3.02192e-05 2.41783e-08 -2.82812e-07 3.0253e-05 -9.81588e-08 2.40619e-05)
(3.0764e-05 3.10698e-08 -4.83326e-07 3.08576e-05 -1.03192e-07 2.45679e-05)
(3.16537e-05 2.68319e-08 -7.03385e-07 3.17973e-05 -1.0933e-07 2.53786e-05)
(3.26201e-05 6.60126e-08 -9.33658e-07 3.28114e-05 -1.20034e-07 2.62978e-05)
(3.28961e-05 -1.74746e-07 9.56464e-07 3.31926e-05 -3.53987e-07 2.66089e-05)
(3.20977e-05 -7.45939e-08 7.20219e-07 3.22083e-05 -3.25117e-07 2.57524e-05)
(3.10635e-05 -7.76864e-08 4.96519e-07 3.11505e-05 -3.07453e-07 2.48327e-05)
(3.0537e-05 -4.77738e-08 2.93703e-07 3.05543e-05 -2.9325e-07 2.43327e-05)
(3.02611e-05 -1.14557e-08 9.824e-08 3.02448e-05 -2.85564e-07 2.4075e-05)
(3.02594e-05 2.28219e-08 -9.49471e-08 3.02394e-05 -2.85543e-07 2.40721e-05)
(3.05234e-05 5.69762e-08 -2.90663e-07 3.05304e-05 -2.93364e-07 2.43176e-05)
(3.10308e-05 8.37518e-08 -4.94205e-07 3.11078e-05 -3.08138e-07 2.48024e-05)
(3.20403e-05 7.762e-08 -7.19222e-07 3.2145e-05 -3.26875e-07 2.57044e-05)
(3.28276e-05 1.7565e-07 -9.56543e-07 3.31266e-05 -3.57058e-07 2.65566e-05)
(3.32554e-05 -1.8619e-07 9.94419e-07 3.37845e-05 -5.93486e-07 2.70834e-05)
(3.27177e-05 -1.5743e-07 7.49458e-07 3.26908e-05 -5.46791e-07 2.62611e-05)
(3.15747e-05 -1.35927e-07 5.18422e-07 3.15876e-05 -5.18373e-07 2.52657e-05)
(3.11272e-05 -7.71894e-08 3.0837e-07 3.10709e-05 -4.96341e-07 2.48253e-05)
(3.08712e-05 -2.22621e-08 1.03288e-07 3.07933e-05 -4.85247e-07 2.45851e-05)
(3.08677e-05 2.90431e-08 -1.0004e-07 3.07872e-05 -4.85215e-07 2.45812e-05)
(3.11129e-05 8.268e-08 -3.05552e-07 3.10508e-05 -4.96297e-07 2.48115e-05)
(3.15424e-05 1.39825e-07 -5.16559e-07 3.15503e-05 -5.18558e-07 2.5238e-05)
(3.26715e-05 1.60428e-07 -7.49022e-07 3.26423e-05 -5.47406e-07 2.62238e-05)
(3.31969e-05 1.90309e-07 -9.9492e-07 3.37336e-05 -5.94511e-07 2.70417e-05)
(3.48715e-05 -6.78265e-07 1.0878e-06 3.65882e-05 -8.29852e-07 2.92113e-05)
(3.40343e-05 -3.69116e-07 7.93305e-07 3.40425e-05 -7.94347e-07 2.74591e-05)
(3.27065e-05 -1.57923e-07 5.48484e-07 3.27534e-05 -7.52219e-07 2.62759e-05)
(3.21634e-05 -7.33307e-08 3.27141e-07 3.20752e-05 -7.20691e-07 2.57253e-05)
(3.18115e-05 -2.10279e-08 1.09558e-07 3.16811e-05 -7.04561e-07 2.53953e-05)
(3.18076e-05 2.46451e-08 -1.06228e-07 3.16758e-05 -7.04443e-07 2.53915e-05)
(3.21513e-05 7.608e-08 -3.24284e-07 3.20604e-05 -7.20379e-07 2.57142e-05)
(3.26798e-05 1.59882e-07 -5.4663e-07 3.27245e-05 -7.51815e-07 2.62534e-05)
(3.39983e-05 3.72636e-07 -7.92783e-07 3.40061e-05 -7.9397e-07 2.74307e-05)
(3.48258e-05 6.83682e-07 -1.08806e-06 3.65524e-05 -8.29331e-07 2.91829e-05)
(3.66786e-05 1.30735e-06 1.15866e-06 3.66747e-05 -1.1603e-06 3.03262e-05)
(3.65619e-05 -6.80937e-07 8.29719e-07 3.48453e-05 -1.09014e-06 2.91896e-05)
(3.37397e-05 -1.88034e-07 5.94647e-07 3.32122e-05 -9.95859e-07 2.70495e-05)
(3.31329e-05 -1.7261e-07 3.57494e-07 3.28432e-05 -9.57208e-07 2.6565e-05)
(3.28191e-05 -6.25179e-08 1.20474e-07 3.26358e-05 -9.34307e-07 2.6307e-05)
(3.2815e-05 6.44213e-08 -1.16852e-07 3.26314e-05 -9.34131e-07 2.63035e-05)
(3.31178e-05 1.7358e-07 -3.54345e-07 3.28267e-05 -9.56703e-07 2.6552e-05)
(3.37178e-05 1.87849e-07 -5.92466e-07 3.31899e-05 -9.94994e-07 2.70312e-05)
(3.65422e-05 6.82161e-07 -8.28741e-07 3.48238e-05 -1.08899e-06 2.91734e-05)
(3.66198e-05 -1.30429e-06 -1.15841e-06 3.6623e-05 -1.15869e-06 3.02814e-05)
(3.24473e-05 -4.08118e-07 1.5368e-06 3.24871e-05 1.5388e-06 2.74464e-05)
(3.16427e-05 4.04438e-07 1.13451e-06 3.06764e-05 1.4354e-06 2.60015e-05)
(3.03703e-05 2.02653e-08 8.28012e-07 3.01928e-05 1.38875e-06 2.49479e-05)
(2.95904e-05 9.67926e-08 5.0997e-07 2.95247e-05 1.36706e-06 2.42268e-05)
(2.91217e-05 2.27141e-08 1.82712e-07 2.91348e-05 1.34555e-06 2.38017e-05)
(2.90635e-05 -2.45918e-08 -1.48434e-07 2.9088e-05 1.34329e-06 2.37567e-05)
(2.94216e-05 -8.74794e-08 -4.72881e-07 2.93894e-05 1.35949e-06 2.4094e-05)
(3.02323e-05 1.47043e-08 -7.95231e-07 3.0117e-05 1.37664e-06 2.48398e-05)
(3.19526e-05 -3.86347e-07 -1.11157e-06 3.10116e-05 1.42516e-06 2.62091e-05)
(3.34632e-05 3.51983e-07 -1.54062e-06 3.34516e-05 1.53829e-06 2.81857e-05)
(3.08046e-05 3.66253e-07 1.43272e-06 3.17829e-05 1.13519e-06 2.60891e-05)
(2.96349e-05 2.62734e-07 1.1172e-06 2.96548e-05 1.11709e-06 2.44172e-05)
(2.90741e-05 8.14434e-08 8.15023e-07 2.91299e-05 1.09675e-06 2.37537e-05)
(2.87306e-05 2.34468e-08 4.98133e-07 2.86644e-05 1.07969e-06 2.32874e-05)
(2.84349e-05 -3.74707e-10 1.73829e-07 2.83672e-05 1.06592e-06 2.29779e-05)
(2.84226e-05 1.32455e-09 -1.50162e-07 2.83618e-05 1.06153e-06 2.29661e-05)
(2.8702e-05 -2.92542e-09 -4.72908e-07 2.8646e-05 1.06454e-06 2.32522e-05)
(2.90844e-05 -1.88382e-08 -7.90008e-07 2.91403e-05 1.07333e-06 2.37244e-05)
(2.95749e-05 -1.75181e-07 -1.08939e-06 2.95496e-05 1.08675e-06 2.43047e-05)
(3.09541e-05 -3.83806e-07 -1.42504e-06 3.18617e-05 1.10774e-06 2.61497e-05)
(3.03891e-05 -1.82853e-08 1.38672e-06 3.05422e-05 8.25215e-07 2.50845e-05)
(2.928e-05 5.75388e-08 1.10032e-06 2.92408e-05 8.15862e-07 2.38665e-05)
(2.83114e-05 8.54926e-08 7.95842e-07 2.83279e-05 7.94066e-07 2.29354e-05)
(2.79253e-05 5.24364e-08 4.83422e-07 2.78742e-05 7.74627e-07 2.24708e-05)
(2.77096e-05 2.31671e-08 1.66314e-07 2.7658e-05 7.64053e-07 2.223e-05)
(2.7728e-05 -4.90282e-10 -1.51646e-07 2.76771e-05 7.60773e-07 2.22413e-05)
(2.79974e-05 -2.14906e-08 -4.68537e-07 2.79381e-05 7.64343e-07 2.25123e-05)
(2.83695e-05 -4.42876e-08 -7.76031e-07 2.83544e-05 7.75376e-07 2.29479e-05)
(2.91313e-05 -1.99447e-08 -1.07225e-06 2.90378e-05 7.87339e-07 2.37106e-05)
(3.01371e-05 1.29012e-08 -1.37782e-06 3.02285e-05 7.96181e-07 2.48478e-05)
(2.96488e-05 8.15147e-08 1.36783e-06 2.96789e-05 5.05098e-07 2.43061e-05)
(2.87683e-05 1.32035e-09 1.08074e-06 2.88325e-05 4.95059e-07 2.33649e-05)
(2.79165e-05 4.14408e-08 7.7678e-07 2.79895e-05 4.80992e-07 2.25106e-05)
(2.74954e-05 3.61507e-08 4.7087e-07 2.75079e-05 4.68368e-07 2.20287e-05)
(2.72608e-05 2.36612e-08 1.60433e-07 2.72533e-05 4.60848e-07 2.17725e-05)
(2.72846e-05 1.00755e-08 -1.50803e-07 2.72705e-05 4.58986e-07 2.17862e-05)
(2.75513e-05 -3.55674e-09 -4.6092e-07 2.75405e-05 4.6235e-07 2.20579e-05)
(2.79521e-05 -2.12166e-08 -7.64264e-07 2.79842e-05 4.70302e-07 2.25139e-05)
(2.86895e-05 -1.64753e-09 -1.06572e-06 2.87118e-05 4.76611e-07 2.32748e-05)
(2.94452e-05 -8.74759e-08 -1.36055e-06 2.9453e-05 4.78919e-07 2.41295e-05)
(2.92448e-05 1.51624e-08 1.348e-06 2.9198e-05 1.77765e-07 2.38742e-05)
(2.8464e-05 -1.50221e-08 1.06787e-06 2.85174e-05 1.70166e-07 2.30472e-05)
(2.77064e-05 1.13511e-08 7.66531e-07 2.77677e-05 1.6333e-07 2.22715e-05)
(2.72672e-05 1.84081e-08 4.63655e-07 2.72948e-05 1.57767e-07 2.17908e-05)
(2.70535e-05 1.78234e-08 1.57331e-07 2.70636e-05 1.54628e-07 2.15521e-05)
(2.70631e-05 1.33613e-08 -1.50622e-07 2.70641e-05 1.53371e-07 2.15552e-05)
(2.72824e-05 7.11917e-09 -4.5693e-07 2.72837e-05 1.54e-07 2.17908e-05)
(2.77022e-05 -1.25711e-09 -7.59318e-07 2.77279e-05 1.56599e-07 2.22506e-05)
(2.84041e-05 6.47528e-09 -1.06053e-06 2.84332e-05 1.58459e-07 2.29862e-05)
(2.91475e-05 -2.15071e-08 -1.34345e-06 2.90969e-05 1.60492e-07 2.37933e-05)
(2.919e-05 -2.95764e-08 1.34657e-06 2.91391e-05 -1.52179e-07 2.38275e-05)
(2.84421e-05 -9.44627e-09 1.06424e-06 2.8489e-05 -1.53132e-07 2.30241e-05)
(2.77285e-05 -1.1344e-08 7.63499e-07 2.77813e-05 -1.54266e-07 2.22831e-05)
(2.72889e-05 3.33551e-09 4.61691e-07 2.73163e-05 -1.53184e-07 2.18071e-05)
(2.70672e-05 1.0584e-08 1.561e-07 2.70837e-05 -1.53007e-07 2.15648e-05)
(2.70686e-05 1.2632e-08 -1.51377e-07 2.70775e-05 -1.53759e-07 2.15626e-05)
(2.72849e-05 1.43553e-08 -4.57218e-07 2.72931e-05 -1.55447e-07 2.17956e-05)
(2.77025e-05 1.80012e-08 -7.59388e-07 2.77338e-05 -1.5839e-07 2.22533e-05)
(2.83999e-05 5.38418e-09 -1.06046e-06 2.84342e-05 -1.60075e-07 2.29851e-05)
(2.91501e-05 2.70002e-08 -1.34371e-06 2.91008e-05 -1.61838e-07 2.37961e-05)
(2.94845e-05 -9.25704e-08 1.36322e-06 2.94917e-05 -4.75621e-07 2.41607e-05)
(2.87175e-05 -1.08483e-08 1.0673e-06 2.87582e-05 -4.75149e-07 2.33039e-05)
(2.79819e-05 -2.96074e-08 7.66981e-07 2.80404e-05 -4.70352e-07 2.25484e-05)
(2.75703e-05 -9.84069e-09 4.65281e-07 2.7591e-05 -4.62847e-07 2.2086e-05)
(2.73015e-05 3.34332e-09 1.5679e-07 2.73156e-05 -4.58882e-07 2.18105e-05)
(2.72996e-05 1.27962e-08 -1.53123e-07 2.73093e-05 -4.59214e-07 2.18072e-05)
(2.75571e-05 2.21354e-08 -4.62067e-07 2.75667e-05 -4.63913e-07 2.20711e-05)
(2.79522e-05 3.57423e-08 -7.64433e-07 2.80012e-05 -4.72387e-07 2.25214e-05)
(2.86794e-05 1.18212e-08 -1.06549e-06 2.87168e-05 -4.78657e-07 2.32732e-05)
(2.94563e-05 9.29999e-08 -1.36135e-06 2.94681e-05 -4.80842e-07 2.41409e-05)
(3.01957e-05 1.1612e-08 1.38019e-06 3.02877e-05 -7.97125e-07 2.48951e-05)
(2.91517e-05 -2.33607e-08 1.073e-06 2.90831e-05 -7.89098e-07 2.37365e-05)
(2.84042e-05 -4.9466e-08 7.78541e-07 2.84173e-05 -7.77547e-07 2.29873e-05)
(2.80227e-05 -2.57632e-08 4.73551e-07 2.79985e-05 -7.65878e-07 2.25469e-05)
(2.7747e-05 -4.64141e-09 1.59361e-07 2.77356e-05 -7.6049e-07 2.22714e-05)
(2.77425e-05 1.57356e-08 -1.56088e-07 2.77291e-05 -7.60593e-07 2.22669e-05)
(2.80062e-05 3.45454e-08 -4.70767e-07 2.79778e-05 -7.66049e-07 2.25322e-05)
(2.83734e-05 5.52381e-08 -7.76737e-07 2.83847e-05 -7.78046e-07 2.29627e-05)
(2.91197e-05 2.74672e-08 -1.07218e-06 2.90513e-05 -7.90252e-07 2.37123e-05)
(3.01646e-05 -6.73693e-09 -1.3792e-06 3.02642e-05 -7.99208e-07 2.48744e-05)
(3.10628e-05 -3.87847e-07 1.42723e-06 3.19791e-05 -1.11209e-06 2.62419e-05)
(2.96081e-05 -1.76022e-07 1.09026e-06 2.96196e-05 -1.09097e-06 2.43467e-05)
(2.91323e-05 -2.19167e-08 7.93456e-07 2.92229e-05 -1.07707e-06 2.37782e-05)
(2.87416e-05 -3.82018e-09 4.79944e-07 2.87251e-05 -1.06673e-06 2.33005e-05)
(2.84484e-05 4.49738e-09 1.61192e-07 2.84315e-05 -1.06109e-06 2.3003e-05)
(2.84425e-05 3.47493e-09 -1.57858e-07 2.8425e-05 -1.06099e-06 2.29979e-05)
(2.87242e-05 1.04321e-08 -4.77081e-07 2.87074e-05 -1.06644e-06 2.32861e-05)
(2.91023e-05 2.67417e-08 -7.91664e-07 2.91945e-05 -1.07654e-06 2.3755e-05)
(2.95823e-05 1.81854e-07 -1.08969e-06 2.95949e-05 -1.09047e-06 2.43276e-05)
(3.10285e-05 3.93654e-07 -1.42672e-06 3.19539e-05 -1.11178e-06 2.62211e-05)
(3.35641e-05 3.45853e-07 1.54235e-06 3.35614e-05 -1.54358e-06 2.82713e-05)
(3.19681e-05 -3.87884e-07 1.11332e-06 3.10602e-05 -1.42933e-06 2.62338e-05)
(3.02862e-05 1.12077e-08 8.00358e-07 3.02016e-05 -1.37991e-06 2.4897e-05)
(2.94841e-05 -8.80103e-08 4.82383e-07 2.9487e-05 -1.36154e-06 2.41589e-05)
(2.91103e-05 -2.15994e-08 1.63263e-07 2.91727e-05 -1.34391e-06 2.38087e-05)
(2.9103e-05 2.68125e-08 -1.59715e-07 2.91654e-05 -1.34384e-06 2.38028e-05)
(2.94603e-05 9.20716e-08 -4.79164e-07 2.94627e-05 -1.36127e-06 2.41397e-05)
(3.02535e-05 -8.71306e-09 -7.98127e-07 3.01707e-05 -1.37934e-06 2.48712e-05)
(3.19454e-05 3.9136e-07 -1.1124e-06 3.1038e-05 -1.4284e-06 2.62162e-05)
(3.35095e-05 -3.4398e-07 -1.54222e-06 3.35178e-05 -1.54234e-06 2.82321e-05)
(2.48039e-05 5.14411e-08 1.34952e-06 2.48066e-05 1.35085e-06 2.14624e-05)
(2.30492e-05 1.52836e-07 1.01831e-06 2.28247e-05 1.27151e-06 1.95073e-05)
(2.2555e-05 -6.24461e-08 7.49811e-07 2.26964e-05 1.27754e-06 1.90028e-05)
(2.14203e-05 2.08848e-08 4.60664e-07 2.15838e-05 1.27077e-06 1.7955e-05)
(2.08903e-05 -2.30456e-08 1.64946e-07 2.10856e-05 1.25864e-06 1.74611e-05)
(2.08551e-05 7.00498e-09 -1.31446e-07 2.10208e-05 1.2581e-06 1.74171e-05)
(2.1172e-05 -2.30059e-08 -4.20203e-07 2.12692e-05 1.26804e-06 1.77214e-05)
(2.20125e-05 1.17483e-07 -7.10256e-07 2.20831e-05 1.27233e-06 1.85298e-05)
(2.27503e-05 -6.89821e-08 -9.96825e-07 2.24335e-05 1.27257e-06 1.92217e-05)
(2.51425e-05 -4.33456e-08 -1.36914e-06 2.51282e-05 1.36752e-06 2.17505e-05)
(2.29733e-05 1.25878e-07 1.27205e-06 2.31934e-05 1.0201e-06 1.9614e-05)
(2.13904e-05 1.22438e-07 1.01937e-06 2.1401e-05 1.01978e-06 1.79799e-05)
(2.0929e-05 -2.95245e-08 7.58299e-07 2.10161e-05 1.0141e-06 1.7402e-05)
(2.04398e-05 -5.0606e-08 4.64111e-07 2.04721e-05 1.00723e-06 1.68296e-05)
(2.01973e-05 -3.74551e-08 1.6417e-07 2.02506e-05 1.00141e-06 1.65588e-05)
(2.02105e-05 2.37044e-10 -1.35037e-07 2.02572e-05 9.99338e-07 1.65607e-05)
(2.04547e-05 1.33635e-08 -4.32461e-07 2.04678e-05 9.9828e-07 1.68133e-05)
(2.08995e-05 4.542e-08 -7.27938e-07 2.09621e-05 9.96199e-07 1.73288e-05)
(2.10674e-05 -2.60586e-08 -9.91067e-07 2.10486e-05 9.89738e-07 1.76726e-05)
(2.24353e-05 -6.67758e-08 -1.272e-06 2.27204e-05 9.94398e-07 1.92107e-05)
(2.28632e-05 -8.47824e-08 1.27845e-06 2.2707e-05 7.48674e-07 1.9128e-05)
(2.1154e-05 -4.80779e-08 1.01814e-06 2.1078e-05 7.61231e-07 1.75073e-05)
(2.0216e-05 -2.84667e-08 7.44334e-07 2.02294e-05 7.44251e-07 1.65773e-05)
(1.97823e-05 -1.80596e-08 4.54664e-07 1.97792e-05 7.29385e-07 1.60718e-05)
(1.95616e-05 -8.37618e-09 1.59915e-07 1.95844e-05 7.21741e-07 1.58248e-05)
(1.95828e-05 -2.54179e-09 -1.36379e-07 1.96069e-05 7.19087e-07 1.58374e-05)
(1.98921e-05 3.04897e-09 -4.3274e-07 1.98845e-05 7.20276e-07 1.61408e-05)
(2.03651e-05 1.39628e-08 -7.2274e-07 2.03644e-05 7.24749e-07 1.66619e-05)
(2.0978e-05 4.71134e-08 -9.93154e-07 2.09009e-05 7.27504e-07 1.73421e-05)
(2.21879e-05 1.15285e-07 -1.27336e-06 2.21023e-05 7.14111e-07 1.86089e-05)
(2.16731e-05 1.5117e-08 1.27402e-06 2.14919e-05 4.57385e-07 1.80193e-05)
(2.05527e-05 -6.5219e-08 1.00865e-06 2.0523e-05 4.62518e-07 1.68925e-05)
(1.98127e-05 -2.57267e-08 7.30173e-07 1.98367e-05 4.54154e-07 1.61049e-05)
(1.94212e-05 -1.05814e-08 4.45491e-07 1.94331e-05 4.44914e-07 1.56406e-05)
(1.91778e-05 3.35735e-12 1.54706e-07 1.91999e-05 4.38116e-07 1.53759e-05)
(1.91966e-05 6.70799e-09 -1.374e-07 1.92164e-05 4.35305e-07 1.53862e-05)
(1.94823e-05 1.32757e-08 -4.30071e-07 1.94852e-05 4.35602e-07 1.56765e-05)
(1.99032e-05 8.04486e-09 -7.17494e-07 1.9913e-05 4.38401e-07 1.61577e-05)
(2.05421e-05 2.24209e-08 -9.97968e-07 2.05233e-05 4.39808e-07 1.68716e-05)
(2.14033e-05 -2.09586e-08 -1.26937e-06 2.12995e-05 4.29559e-07 1.78258e-05)
(2.11777e-05 -2.68814e-08 1.26278e-06 2.09682e-05 1.61732e-07 1.75304e-05)
(2.03283e-05 -4.70781e-08 1.00369e-06 2.0272e-05 1.61869e-07 1.66192e-05)
(1.96195e-05 -1.66813e-08 7.23124e-07 1.96113e-05 1.5851e-07 1.58582e-05)
(1.92068e-05 -3.88855e-09 4.39086e-07 1.92074e-05 1.53939e-07 1.53897e-05)
(1.89853e-05 3.58279e-09 1.50846e-07 1.89969e-05 1.50074e-07 1.5143e-05)
(1.89922e-05 7.41046e-09 -1.39394e-07 1.90004e-05 1.4742e-07 1.51455e-05)
(1.92287e-05 1.00092e-08 -4.29263e-07 1.92184e-05 1.46117e-07 1.53991e-05)
(1.96502e-05 7.39564e-09 -7.15339e-07 1.96298e-05 1.4666e-07 1.58716e-05)
(2.03384e-05 1.82896e-08 -9.97599e-07 2.02968e-05 1.47269e-07 1.66254e-05)
(2.11453e-05 1.47839e-08 -1.2593e-06 2.09963e-05 1.45328e-07 1.75209e-05)
(2.11114e-05 2.88596e-09 1.26283e-06 2.09362e-05 -1.33932e-07 1.7488e-05)
(2.03186e-05 -8.42229e-09 1.00216e-06 2.02715e-05 -1.37009e-07 1.66103e-05)
(1.96447e-05 -1.14908e-08 7.20866e-07 1.96305e-05 -1.37828e-07 1.58719e-05)
(1.92269e-05 1.15877e-09 4.36399e-07 1.92253e-05 -1.38313e-07 1.54025e-05)
(1.89992e-05 4.98992e-09 1.48253e-07 1.90131e-05 -1.40118e-07 1.51534e-05)
(1.90032e-05 6.19516e-09 -1.41265e-07 1.90146e-05 -1.41945e-07 1.5155e-05)
(1.92355e-05 5.97174e-09 -4.30235e-07 1.92283e-05 -1.43397e-07 1.54056e-05)
(1.9652e-05 8.72979e-09 -7.15837e-07 1.96344e-05 -1.4532e-07 1.58743e-05)
(2.0331e-05 -4.25794e-09 -9.97657e-07 2.02932e-05 -1.46197e-07 1.66209e-05)
(2.11377e-05 -9.10813e-09 -1.25955e-06 2.09905e-05 -1.44026e-07 1.75158e-05)
(2.13496e-05 -2.87842e-08 1.2727e-06 2.12418e-05 -4.22159e-07 1.77844e-05)
(2.05208e-05 5.94918e-09 1.00108e-06 2.05048e-05 -4.34042e-07 1.68565e-05)
(1.99158e-05 -3.97276e-09 7.22141e-07 1.99311e-05 -4.33729e-07 1.61705e-05)
(1.95064e-05 7.86924e-09 4.37147e-07 1.952e-05 -4.31073e-07 1.57002e-05)
(1.92307e-05 6.61533e-09 1.47228e-07 1.9262e-05 -4.30085e-07 1.54167e-05)
(1.92311e-05 4.37145e-09 -1.42742e-07 1.92616e-05 -4.31031e-07 1.54165e-05)
(1.95042e-05 -3.36313e-11 -4.33205e-07 1.95162e-05 -4.33757e-07 1.56974e-05)
(1.99093e-05 5.62528e-09 -7.18637e-07 1.99273e-05 -4.37766e-07 1.6166e-05)
(2.05218e-05 -1.07362e-08 -9.97977e-07 2.05137e-05 -4.39386e-07 1.68597e-05)
(2.13859e-05 2.58424e-08 -1.27014e-06 2.12869e-05 -4.2899e-07 1.78149e-05)
(2.21399e-05 1.12844e-07 1.27652e-06 2.20591e-05 -7.11414e-07 1.85752e-05)
(2.09598e-05 4.04629e-08 9.95216e-07 2.08949e-05 -7.25968e-07 1.73331e-05)
(2.04024e-05 9.50288e-09 7.27259e-07 2.04091e-05 -7.23793e-07 1.66954e-05)
(1.99428e-05 4.21878e-09 4.40487e-07 1.9948e-05 -7.18603e-07 1.61867e-05)
(1.96429e-05 3.97209e-09 1.47853e-07 1.96839e-05 -7.15949e-07 1.58902e-05)
(1.96397e-05 5.97607e-09 -1.4459e-07 1.96805e-05 -7.16381e-07 1.58875e-05)
(1.99294e-05 3.96736e-09 -4.37446e-07 1.99361e-05 -7.19659e-07 1.61765e-05)
(2.03802e-05 -5.21036e-09 -7.24836e-07 2.0393e-05 -7.25385e-07 1.66801e-05)
(2.0954e-05 -3.96355e-08 -9.9343e-07 2.08952e-05 -7.28497e-07 1.73309e-05)
(2.21761e-05 -1.10593e-07 -1.27485e-06 2.20992e-05 -7.1526e-07 1.86047e-05)
(2.24671e-05 -7.24603e-08 1.27496e-06 2.27703e-05 -9.96689e-07 1.9248e-05)
(2.10882e-05 -2.60564e-08 9.93077e-07 2.10997e-05 -9.92125e-07 1.77028e-05)
(2.09779e-05 4.67045e-08 7.33336e-07 2.10584e-05 -9.98199e-07 1.74003e-05)
(2.05421e-05 2.0694e-08 4.41929e-07 2.0573e-05 -9.98878e-07 1.68912e-05)
(2.03042e-05 1.56003e-08 1.48419e-07 2.03642e-05 -9.98108e-07 1.66388e-05)
(2.02982e-05 -7.3943e-09 -1.45545e-07 2.0358e-05 -9.98226e-07 1.66338e-05)
(2.05224e-05 -1.31961e-08 -4.39162e-07 2.05548e-05 -9.99176e-07 1.68757e-05)
(2.09442e-05 -4.10183e-08 -7.31147e-07 2.10294e-05 -9.98468e-07 1.73752e-05)