/*--------------------------------*- C++ -*----------------------------------*\
| =========                 |                                                 |
| \\      /  F ield         | OpenFOAM: The Open Source CFD Toolbox           |
|  \\    /   O peration     | Version:  2406                                  |
|   \\  /    A nd           | Website:  www.openfoam.com                      |
|    \\/     M anipulation  |                                                 |
\*---------------------------------------------------------------------------*/
FoamFile
{
    version     2.0;
    format      ascii;
    arch        "LSB;label=32;scalar=64";
    class       volScalarField;
    location    "100";
    object      turbulenceProperties:k;
}
// * * * * * * * * * * * * * * * * * * * * * * * * * * * * * * * * * * * * * //

dimensions      [0 2 -2 0 0 0 0];

internalField   nonuniform List<scalar> 
25000
(
3.72965e-05
3.59435e-05
3.30481e-05
3.24095e-05
3.21137e-05
3.21222e-05
3.24153e-05
3.29838e-05
3.6e-05
3.7622e-05
3.60454e-05
3.53384e-05
3.21809e-05
3.04902e-05
2.96631e-05
2.96335e-05
3.03749e-05
3.19412e-05
3.48873e-05
3.58967e-05
3.31658e-05
3.22437e-05
2.98162e-05
2.83494e-05
2.7621e-05
2.75956e-05
2.826e-05
2.96385e-05
3.1918e-05
3.28941e-05
3.2491e-05
3.05323e-05
2.83668e-05
2.69482e-05
2.62396e-05
2.62243e-05
2.68918e-05
2.82506e-05
3.03548e-05
3.23294e-05
3.2173e-05
2.97145e-05
2.76396e-05
2.62462e-05
2.55533e-05
2.55435e-05
2.62136e-05
2.75749e-05
2.95978e-05
3.20403e-05
3.2155e-05
2.96727e-05
2.76196e-05
2.62327e-05
2.55464e-05
2.5541e-05
2.62141e-05
2.75766e-05
2.95999e-05
3.20474e-05
3.2441e-05
3.04174e-05
2.82844e-05
2.69069e-05
2.62221e-05
2.62197e-05
2.68931e-05
2.8255e-05
3.03617e-05
3.23503e-05
3.29981e-05
3.1969e-05
2.96724e-05
2.82731e-05
2.75893e-05
2.75864e-05
2.82613e-05
2.96465e-05
3.19284e-05
3.29276e-05
3.59986e-05
3.49292e-05
3.1967e-05
3.03792e-05
2.96152e-05
2.96123e-05
3.03709e-05
3.19461e-05
3.48985e-05
3.59421e-05
3.76578e-05
3.59382e-05
3.29262e-05
3.23528e-05
3.20547e-05
3.20564e-05
3.23523e-05
3.29243e-05
3.59415e-05
3.76165e-05
5.07734e-05
4.98413e-05
4.68833e-05
4.62297e-05
4.58996e-05
4.58883e-05
4.626e-05
4.69914e-05
5.03046e-05
5.17372e-05
4.99904e-05
4.7775e-05
4.57906e-05
4.49563e-05
4.44236e-05
4.44221e-05
4.49411e-05
4.58038e-05
4.76891e-05
5.01805e-05
4.71052e-05
4.59742e-05
4.42297e-05
4.34665e-05
4.3081e-05
4.30882e-05
4.34646e-05
4.4144e-05
4.5754e-05
4.69267e-05
4.63824e-05
4.50888e-05
4.3535e-05
4.26745e-05
4.2249e-05
4.22578e-05
4.26663e-05
4.34558e-05
4.49354e-05
4.62208e-05
4.6019e-05
4.45413e-05
4.31485e-05
4.22792e-05
4.18717e-05
4.187e-05
4.22597e-05
4.30893e-05
4.44118e-05
4.58536e-05
4.59843e-05
4.45107e-05
4.31558e-05
4.22905e-05
4.18846e-05
4.18797e-05
4.22671e-05
4.30948e-05
4.44148e-05
4.58647e-05
4.63488e-05
4.50292e-05
4.35233e-05
4.2712e-05
4.22904e-05
4.22854e-05
4.26857e-05
4.34705e-05
4.49448e-05
4.62554e-05
4.70617e-05
4.58348e-05
4.4214e-05
4.35117e-05
4.31249e-05
4.31181e-05
4.34876e-05
4.41654e-05
4.57688e-05
4.69861e-05
5.03355e-05
4.7768e-05
4.58679e-05
4.49819e-05
4.4444e-05
4.44375e-05
4.49629e-05
4.58289e-05
4.77175e-05
5.02806e-05
5.18397e-05
5.02984e-05
4.70007e-05
4.62706e-05
4.58809e-05
4.58749e-05
4.62482e-05
4.69694e-05
5.02697e-05
5.17621e-05
4.61904e-05
4.41603e-05
4.27555e-05
4.1671e-05
4.10291e-05
4.09541e-05
4.14525e-05
4.25945e-05
4.45866e-05
4.75503e-05
4.43383e-05
4.18534e-05
4.09789e-05
4.03412e-05
3.989e-05
3.98753e-05
4.03001e-05
4.09745e-05
4.17146e-05
4.44828e-05
4.30079e-05
4.11937e-05
3.97874e-05
3.91351e-05
3.87988e-05
3.88232e-05
3.92239e-05
3.98359e-05
4.09398e-05
4.26067e-05
4.18169e-05
4.04828e-05
3.92083e-05
3.8516e-05
3.81433e-05
3.81706e-05
3.85749e-05
3.92251e-05
4.0338e-05
4.15138e-05
4.11585e-05
4.00143e-05
3.88728e-05
3.81764e-05
3.78346e-05
3.78412e-05
3.81785e-05
3.88403e-05
3.99117e-05
4.10188e-05
4.10783e-05
3.99776e-05
3.88964e-05
3.82061e-05
3.78579e-05
3.78544e-05
3.81868e-05
3.88448e-05
3.99096e-05
4.10235e-05
4.15684e-05
4.03898e-05
3.92853e-05
3.86237e-05
3.82138e-05
3.82081e-05
3.85974e-05
3.92374e-05
4.03347e-05
4.15326e-05
4.26893e-05
4.09857e-05
3.99044e-05
3.9284e-05
3.8877e-05
3.88692e-05
3.92581e-05
3.98604e-05
4.09417e-05
4.26516e-05
4.46419e-05
4.17872e-05
4.10667e-05
4.03836e-05
3.99414e-05
3.99327e-05
4.03589e-05
4.10259e-05
4.17524e-05
4.46017e-05
4.76984e-05
4.46311e-05
4.26924e-05
4.1565e-05
4.10458e-05
4.10356e-05
4.15314e-05
4.26477e-05
4.45998e-05
4.76297e-05
3.55364e-05
3.26906e-05
3.21271e-05
3.04796e-05
2.97185e-05
2.96465e-05
3.00813e-05
3.13127e-05
3.22028e-05
3.60106e-05
3.28903e-05
3.03856e-05
2.96735e-05
2.88708e-05
2.85033e-05
2.85142e-05
2.88679e-05
2.95952e-05
2.98943e-05
3.21832e-05
3.23491e-05
2.98696e-05
2.85114e-05
2.78167e-05
2.74854e-05
2.75136e-05
2.79587e-05
2.86957e-05
2.96105e-05
3.14495e-05
3.05921e-05
2.89841e-05
2.78772e-05
2.72475e-05
2.68768e-05
2.68996e-05
2.7322e-05
2.7987e-05
2.89685e-05
3.02643e-05
2.98382e-05
2.86098e-05
2.75445e-05
2.69019e-05
2.65626e-05
2.6569e-05
2.69231e-05
2.75758e-05
2.86303e-05
2.98312e-05
2.97678e-05
2.86002e-05
2.75736e-05
2.69273e-05
2.65828e-05
2.65864e-05
2.69347e-05
2.75803e-05
2.86226e-05
2.9822e-05
3.01879e-05
2.8941e-05
2.80087e-05
2.73632e-05
2.69547e-05
2.69546e-05
2.73589e-05
2.80013e-05
2.89476e-05
3.02438e-05
3.13871e-05
2.95939e-05
2.87534e-05
2.80387e-05
2.76085e-05
2.76038e-05
2.8021e-05
2.87266e-05
2.959e-05
3.144e-05
3.22427e-05
2.99453e-05
2.97183e-05
2.90032e-05
2.86536e-05
2.8645e-05
2.89764e-05
2.96744e-05
2.99249e-05
3.22615e-05
3.61789e-05
3.23258e-05
3.15252e-05
3.02997e-05
2.98493e-05
2.9838e-05
3.02586e-05
3.14608e-05
3.2279e-05
3.61398e-05
2.80313e-05
2.49893e-05
2.41864e-05
2.23801e-05
2.17839e-05
2.1816e-05
2.21943e-05
2.33427e-05
2.39674e-05
2.74158e-05
2.51926e-05
2.25674e-05
2.16161e-05
2.06771e-05
2.03938e-05
2.04431e-05
2.07779e-05
2.16525e-05
2.21119e-05
2.40344e-05
2.43264e-05
2.17595e-05
2.04971e-05
1.9695e-05
1.9294e-05
1.9293e-05
1.97786e-05
2.07195e-05
2.16939e-05
2.35537e-05
2.24193e-05
2.07218e-05
1.97192e-05
1.90091e-05
1.85557e-05
1.85442e-05
1.90017e-05
1.9813e-05
2.08823e-05
2.23938e-05
2.18358e-05
2.04369e-05
1.93054e-05
1.85566e-05
1.81443e-05
1.81384e-05
1.85658e-05
1.93633e-05
2.05601e-05
2.19936e-05
2.18656e-05
2.04685e-05
1.93064e-05
1.85394e-05
1.8137e-05
1.81482e-05
1.85747e-05
1.93659e-05
2.05484e-05
2.19705e-05
2.2233e-05
2.0797e-05
1.97837e-05
1.90073e-05
1.85732e-05
1.85836e-05
1.90362e-05
1.98237e-05
2.08445e-05
2.23286e-05
2.33484e-05
2.16061e-05
2.07345e-05
1.98289e-05
1.93704e-05
1.93753e-05
1.98352e-05
2.07394e-05
2.16404e-05
2.34657e-05
2.39386e-05
2.20993e-05
2.17429e-05
2.08772e-05
2.05567e-05
2.05556e-05
2.08676e-05
2.17149e-05
2.21012e-05
2.40185e-05
2.75307e-05
2.40903e-05
2.35564e-05
2.23786e-05
2.19861e-05
2.19831e-05
2.23538e-05
2.35013e-05
2.40523e-05
2.75409e-05
2.35147e-05
2.06058e-05
1.95485e-05
1.81531e-05
1.78918e-05
1.80371e-05
1.8326e-05
1.92313e-05
1.98036e-05
2.25369e-05
2.07861e-05
1.85315e-05
1.75737e-05
1.6802e-05
1.66375e-05
1.67071e-05
1.70025e-05
1.78572e-05
1.84825e-05
1.99457e-05
1.96129e-05
1.76518e-05
1.67653e-05
1.60256e-05
1.55915e-05
1.55538e-05
1.5999e-05
1.69504e-05
1.78756e-05
1.9445e-05
1.81217e-05
1.67806e-05
1.60122e-05
1.52818e-05
1.47889e-05
1.47458e-05
1.51684e-05
1.60061e-05
1.70367e-05
1.84323e-05
1.78656e-05
1.66242e-05
1.55633e-05
1.47711e-05
1.43368e-05
1.43151e-05
1.47447e-05
1.55832e-05
1.67338e-05
1.80723e-05
1.80023e-05
1.66873e-05
1.55369e-05
1.47187e-05
1.43039e-05
1.43108e-05
1.4745e-05
1.5584e-05
1.67267e-05
1.8045e-05
1.82976e-05
1.69902e-05
1.59794e-05
1.51527e-05
1.47362e-05
1.47462e-05
1.51808e-05
1.60125e-05
1.70065e-05
1.83444e-05
1.91869e-05
1.77977e-05
1.69456e-05
1.60038e-05
1.55755e-05
1.55839e-05
1.60164e-05
1.6954e-05
1.78151e-05
1.9288e-05
1.97229e-05
1.8446e-05
1.7901e-05
1.70196e-05
1.67223e-05
1.67258e-05
1.70212e-05
1.78791e-05
1.84373e-05
1.98208e-05
2.25157e-05
1.99077e-05
1.93786e-05
1.8386e-05
1.80548e-05
1.80598e-05
1.83745e-05
1.9332e-05
1.98631e-05
2.25591e-05
2.06988e-05
1.83842e-05
1.74572e-05
1.65897e-05
1.66181e-05
1.68385e-05
1.70632e-05
1.77764e-05
1.83044e-05
2.02034e-05
1.85939e-05
1.70063e-05
1.62646e-05
1.576e-05
1.56665e-05
1.57334e-05
1.60003e-05
1.67679e-05
1.7468e-05
1.85032e-05
1.75168e-05
1.63204e-05
1.58281e-05
1.5207e-05
1.4768e-05
1.47214e-05
1.5101e-05
1.59441e-05
1.67397e-05
1.7958e-05
1.65501e-05
1.57237e-05
1.51805e-05
1.44776e-05
1.40164e-05
1.39778e-05
1.43273e-05
1.50705e-05
1.59526e-05
1.70605e-05
1.6568e-05
1.56397e-05
1.47314e-05
1.39978e-05
1.36235e-05
1.36011e-05
1.39605e-05
1.47066e-05
1.56689e-05
1.67379e-05
1.67635e-05
1.56958e-05
1.46972e-05
1.395e-05
1.35925e-05
1.35922e-05
1.39517e-05
1.47037e-05
1.56686e-05
1.67181e-05
1.70016e-05
1.5966e-05
1.50698e-05
1.43097e-05
1.39557e-05
1.39549e-05
1.43134e-05
1.50683e-05
1.59364e-05
1.69811e-05
1.7736e-05
1.66999e-05
1.59307e-05
1.50684e-05
1.47015e-05
1.47059e-05
1.50717e-05
1.59232e-05
1.66838e-05
1.77757e-05
1.82323e-05
1.74201e-05
1.67607e-05
1.59387e-05
1.5661e-05
1.56663e-05
1.59458e-05
1.67442e-05
1.73974e-05
1.82953e-05
2.01191e-05
1.83952e-05
1.78583e-05
1.70077e-05
1.67227e-05
1.67295e-05
1.70049e-05
1.78139e-05
1.8338e-05
2.01366e-05
1.95097e-05
1.77664e-05
1.70415e-05
1.65464e-05
1.6701e-05
1.69006e-05
1.70728e-05
1.76448e-05
1.81344e-05
1.94613e-05
1.79937e-05
1.68875e-05
1.63817e-05
1.60553e-05
1.59352e-05
1.59801e-05
1.62311e-05
1.68945e-05
1.75488e-05
1.83572e-05
1.71208e-05
1.6439e-05
1.61448e-05
1.55482e-05
1.50992e-05
1.50743e-05
1.54153e-05
1.61462e-05
1.68022e-05
1.77498e-05
1.65249e-05
1.60322e-05
1.55344e-05
1.48145e-05
1.43928e-05
1.43855e-05
1.46942e-05
1.53525e-05
1.61112e-05
1.69735e-05
1.66491e-05
1.59207e-05
1.50827e-05
1.43893e-05
1.40691e-05
1.40568e-05
1.43639e-05
1.5031e-05
1.58469e-05
1.66915e-05
1.68001e-05
1.59374e-05
1.5061e-05
1.43749e-05
1.40594e-05
1.40521e-05
1.43512e-05
1.50266e-05
1.5856e-05
1.66856e-05
1.69843e-05
1.61781e-05
1.53811e-05
1.46864e-05
1.43725e-05
1.43617e-05
1.46651e-05
1.53476e-05
1.61235e-05
1.69306e-05
1.76053e-05
1.68159e-05
1.61296e-05
1.53581e-05
1.50373e-05
1.50384e-05
1.5356e-05
1.61192e-05
1.67896e-05
1.76034e-05
1.80798e-05
1.75222e-05
1.68437e-05
1.61137e-05
1.58524e-05
1.58615e-05
1.61372e-05
1.68556e-05
1.75129e-05
1.8126e-05
1.9312e-05
1.82232e-05
1.76594e-05
1.6935e-05
1.66878e-05
1.67015e-05
1.69591e-05
1.76544e-05
1.81854e-05
1.93247e-05
1.89498e-05
1.76111e-05
1.70994e-05
1.68364e-05
1.69918e-05
1.71192e-05
1.72674e-05
1.77301e-05
1.81364e-05
1.90549e-05
1.78633e-05
1.70673e-05
1.6743e-05
1.65011e-05
1.63442e-05
1.63868e-05
1.66419e-05
1.7212e-05
1.77321e-05
1.83166e-05
1.72116e-05
1.68172e-05
1.65589e-05
1.59495e-05
1.55356e-05
1.55693e-05
1.58997e-05
1.65388e-05
1.70654e-05
1.77485e-05
1.68546e-05
1.65009e-05
1.59478e-05
1.52273e-05
1.48705e-05
1.49184e-05
1.52177e-05
1.58135e-05
1.64819e-05
1.71315e-05
1.69555e-05
1.63322e-05
1.5525e-05
1.48755e-05
1.46071e-05
1.46177e-05
1.49004e-05
1.55137e-05
1.6235e-05
1.6904e-05
1.70089e-05
1.63193e-05
1.55424e-05
1.49115e-05
1.46267e-05
1.46198e-05
1.48834e-05
1.55052e-05
1.62488e-05
1.69136e-05
1.71652e-05
1.65522e-05
1.58392e-05
1.52072e-05
1.49172e-05
1.49005e-05
1.51734e-05
1.57985e-05
1.65107e-05
1.71425e-05
1.77013e-05
1.711e-05
1.6505e-05
1.58181e-05
1.55285e-05
1.55268e-05
1.58139e-05
1.64992e-05
1.70922e-05
1.76945e-05
1.81346e-05
1.77316e-05
1.71243e-05
1.64951e-05
1.62491e-05
1.62603e-05
1.65298e-05
1.71641e-05
1.77437e-05
1.81682e-05
1.89392e-05
1.82228e-05
1.76985e-05
1.71163e-05
1.69087e-05
1.69292e-05
1.71726e-05
1.77529e-05
1.8241e-05
1.89725e-05
1.85835e-05
1.74419e-05
1.71111e-05
1.69921e-05
1.70856e-05
1.71227e-05
1.72677e-05
1.76761e-05
1.79781e-05
1.86155e-05
1.77037e-05
1.70752e-05
1.68883e-05
1.66863e-05
1.65131e-05
1.6557e-05
1.68173e-05
1.73312e-05
1.77049e-05
1.8065e-05
1.72262e-05
1.69595e-05
1.66884e-05
1.6083e-05
1.57304e-05
1.58184e-05
1.61403e-05
1.67124e-05
1.71385e-05
1.75933e-05
1.70004e-05
1.6677e-05
1.60827e-05
1.54011e-05
1.51136e-05
1.52072e-05
1.55025e-05
1.60463e-05
1.66433e-05
1.71254e-05
1.70188e-05
1.64671e-05
1.57081e-05
1.51185e-05
1.48945e-05
1.49262e-05
1.51944e-05
1.57617e-05
1.64124e-05
1.6942e-05
1.69868e-05
1.64437e-05
1.576e-05
1.51905e-05
1.49329e-05
1.49315e-05
1.51752e-05
1.57508e-05
1.64272e-05
1.69592e-05
1.7143e-05
1.66841e-05
1.60466e-05
1.54764e-05
1.52058e-05
1.51915e-05
1.54493e-05
1.60245e-05
1.66802e-05
1.71743e-05
1.76233e-05
1.71976e-05
1.66594e-05
1.60408e-05
1.57725e-05
1.57726e-05
1.60436e-05
1.66684e-05
1.71943e-05
1.76238e-05
1.79926e-05
1.77232e-05
1.72139e-05
1.66616e-05
1.6426e-05
1.64383e-05
1.67037e-05
1.72726e-05
1.77469e-05
1.80075e-05
1.85396e-05
1.804e-05
1.75971e-05
1.71297e-05
1.69455e-05
1.69706e-05
1.72079e-05
1.76973e-05
1.81015e-05
1.85806e-05
1.80265e-05
1.70551e-05
1.69205e-05
1.69165e-05
1.696e-05
1.69375e-05
1.70949e-05
1.74819e-05
1.76746e-05
1.80891e-05
1.72423e-05
1.6842e-05
1.68061e-05
1.6655e-05
1.64874e-05
1.65155e-05
1.67624e-05
1.72463e-05
1.75043e-05
1.76229e-05
1.69492e-05
1.68419e-05
1.66113e-05
1.60503e-05
1.57546e-05
1.58598e-05
1.61508e-05
1.66705e-05
1.70278e-05
1.72822e-05
1.68442e-05
1.65971e-05
1.60326e-05
1.542e-05
1.51861e-05
1.52944e-05
1.557e-05
1.60639e-05
1.66005e-05
1.69443e-05
1.68302e-05
1.63757e-05
1.56971e-05
1.51773e-05
1.49873e-05
1.50295e-05
1.528e-05
1.58007e-05
1.63886e-05
1.67964e-05
1.67809e-05
1.63577e-05
1.57583e-05
1.52519e-05
1.50232e-05
1.5032e-05
1.52629e-05
1.57931e-05
1.64051e-05
1.6818e-05
1.69593e-05
1.66072e-05
1.60317e-05
1.55194e-05
1.52729e-05
1.52702e-05
1.55223e-05
1.60509e-05
1.66472e-05
1.70232e-05
1.73953e-05
1.70957e-05
1.66098e-05
1.6047e-05
1.57979e-05
1.58046e-05
1.60678e-05
1.66418e-05
1.71078e-05
1.739e-05
1.76778e-05
1.75331e-05
1.71183e-05
1.66232e-05
1.63968e-05
1.64079e-05
1.66651e-05
1.7182e-05
1.75573e-05
1.76611e-05
1.80771e-05
1.7685e-05
1.7346e-05
1.69696e-05
1.67978e-05
1.68192e-05
1.70451e-05
1.74562e-05
1.77581e-05
1.80962e-05
1.74448e-05
1.6587e-05
1.66073e-05
1.66855e-05
1.67045e-05
1.66592e-05
1.68344e-05
1.72184e-05
1.73288e-05
1.76218e-05
1.66607e-05
1.6546e-05
1.66548e-05
1.65502e-05
1.63762e-05
1.63625e-05
1.65801e-05
1.70518e-05
1.72428e-05
1.71335e-05
1.65195e-05
1.66479e-05
1.65027e-05
1.59923e-05
1.57146e-05
1.57893e-05
1.60284e-05
1.65097e-05
1.68308e-05
1.69113e-05
1.65228e-05
1.64425e-05
1.59544e-05
1.54048e-05
1.51867e-05
1.527e-05
1.55097e-05
1.59607e-05
1.64499e-05
1.66709e-05
1.6529e-05
1.62164e-05
1.56273e-05
1.51618e-05
1.49821e-05
1.50171e-05
1.52438e-05
1.57214e-05
1.6254e-05
1.65442e-05
1.6514e-05
1.62015e-05
1.56646e-05
1.5203e-05
1.49932e-05
1.50092e-05
1.52311e-05
1.57202e-05
1.627e-05
1.65665e-05
1.67138e-05
1.64424e-05
1.59117e-05
1.54397e-05
1.52121e-05
1.52233e-05
1.54757e-05
1.59644e-05
1.65001e-05
1.67648e-05
1.70955e-05
1.6897e-05
1.64549e-05
1.5934e-05
1.5698e-05
1.57114e-05
1.59729e-05
1.65048e-05
1.69164e-05
1.70695e-05
1.72786e-05
1.7249e-05
1.69181e-05
1.6467e-05
1.62472e-05
1.62546e-05
1.65019e-05
1.69778e-05
1.72755e-05
1.72387e-05
1.76392e-05
1.72357e-05
1.70033e-05
1.67012e-05
1.6536e-05
1.65466e-05
1.67541e-05
1.71e-05
1.7313e-05
1.76408e-05
1.71131e-05
1.6197e-05
1.62788e-05
1.63764e-05
1.6363e-05
1.63051e-05
1.64823e-05
1.68629e-05
1.69398e-05
1.7335e-05
1.6135e-05
1.62669e-05
1.64732e-05
1.63807e-05
1.61742e-05
1.61074e-05
1.6287e-05
1.67442e-05
1.6897e-05
1.6634e-05
1.60814e-05
1.64315e-05
1.63607e-05
1.58841e-05
1.55926e-05
1.56135e-05
1.58007e-05
1.6253e-05
1.6549e-05
1.64937e-05
1.61535e-05
1.62496e-05
1.58403e-05
1.53355e-05
1.51064e-05
1.51464e-05
1.53492e-05
1.57674e-05
1.62123e-05
1.63221e-05
1.61879e-05
1.60201e-05
1.55094e-05
1.50779e-05
1.48924e-05
1.49111e-05
1.5114e-05
1.55548e-05
1.6034e-05
1.62076e-05
1.62148e-05
1.60033e-05
1.55146e-05
1.50806e-05
1.48786e-05
1.4896e-05
1.51102e-05
1.55624e-05
1.60495e-05
1.62295e-05
1.64147e-05
1.62196e-05
1.57334e-05
1.52902e-05
1.50721e-05
1.5092e-05
1.53431e-05
1.57949e-05
1.62668e-05
1.64219e-05
1.6728e-05
1.66245e-05
1.6235e-05
1.57538e-05
1.5525e-05
1.55389e-05
1.57949e-05
1.62855e-05
1.66402e-05
1.66816e-05
1.68207e-05
1.68901e-05
1.66424e-05
1.62376e-05
1.60252e-05
1.60239e-05
1.62523e-05
1.66839e-05
1.6916e-05
1.67826e-05
1.73328e-05
1.67485e-05
1.65987e-05
1.63606e-05
1.62011e-05
1.61953e-05
1.63731e-05
1.66611e-05
1.68185e-05
1.73356e-05
1.70836e-05
1.59142e-05
1.5983e-05
1.60266e-05
1.59609e-05
1.58917e-05
1.60587e-05
1.64309e-05
1.65448e-05
1.72833e-05
1.5777e-05
1.60893e-05
1.62998e-05
1.61587e-05
1.59131e-05
1.58132e-05
1.59682e-05
1.6408e-05
1.65445e-05
1.61895e-05
1.57516e-05
1.62765e-05
1.62048e-05
1.57249e-05
1.54166e-05
1.54027e-05
1.55637e-05
1.59982e-05
1.62735e-05
1.60902e-05
1.58415e-05
1.60807e-05
1.57071e-05
1.52208e-05
1.4978e-05
1.49886e-05
1.5173e-05
1.55736e-05
1.59785e-05
1.59669e-05
1.58735e-05
1.58428e-05
1.53844e-05
1.49661e-05
1.47705e-05
1.47766e-05
1.49643e-05
1.53796e-05
1.58108e-05
1.58604e-05
1.59183e-05
1.58209e-05
1.53767e-05
1.49553e-05
1.4751e-05
1.47641e-05
1.49693e-05
1.53908e-05
1.58197e-05
1.5881e-05
1.61e-05
1.60069e-05
1.55772e-05
1.5156e-05
1.49357e-05
1.49526e-05
1.51964e-05
1.56126e-05
1.60195e-05
1.6064e-05
1.6349e-05
1.63525e-05
1.60354e-05
1.5593e-05
1.53636e-05
1.53685e-05
1.56108e-05
1.60561e-05
1.63494e-05
1.62903e-05
1.64088e-05
1.65377e-05
1.63758e-05
1.60178e-05
1.5811e-05
1.57965e-05
1.59981e-05
1.63804e-05
1.65527e-05
1.63757e-05
1.72693e-05
1.62966e-05
1.61956e-05
1.60153e-05
1.58655e-05
1.58425e-05
1.5983e-05
1.62169e-05
1.63646e-05
1.72905e-05
1.74169e-05
1.5861e-05
1.58029e-05
1.57211e-05
1.5555e-05
1.54434e-05
1.55781e-05
1.59403e-05
1.61868e-05
1.7465e-05
1.56832e-05
1.60208e-05
1.61224e-05
1.58663e-05
1.55745e-05
1.54649e-05
1.56095e-05
1.60254e-05
1.61558e-05
1.5857e-05
1.56106e-05
1.6157e-05
1.59728e-05
1.54472e-05
1.51348e-05
1.51212e-05
1.529e-05
1.57161e-05
1.59688e-05
1.57098e-05
1.56351e-05
1.58874e-05
1.54808e-05
1.49895e-05
1.47454e-05
1.47561e-05
1.49488e-05
1.53464e-05
1.57135e-05
1.55988e-05
1.55852e-05
1.56275e-05
1.51866e-05
1.47679e-05
1.4567e-05
1.45718e-05
1.4758e-05
1.51603e-05
1.55497e-05
1.54877e-05
1.55902e-05
1.55997e-05
1.51961e-05
1.47811e-05
1.45685e-05
1.45732e-05
1.47709e-05
1.51696e-05
1.55479e-05
1.5502e-05
1.57287e-05
1.57599e-05
1.53992e-05
1.49959e-05
1.47638e-05
1.47675e-05
1.49982e-05
1.53825e-05
1.57281e-05
1.56717e-05
1.59356e-05
1.60491e-05
1.58165e-05
1.54117e-05
1.51754e-05
1.51641e-05
1.53865e-05
1.57875e-05
1.6017e-05
1.58828e-05
1.60667e-05
1.6177e-05
1.60906e-05
1.57748e-05
1.55719e-05
1.5543e-05
1.57148e-05
1.60467e-05
1.61649e-05
1.60416e-05
1.74323e-05
1.59584e-05
1.58115e-05
1.56565e-05
1.55115e-05
1.54749e-05
1.55843e-05
1.57857e-05
1.60022e-05
1.74639e-05
1.75052e-05
1.598e-05
1.56866e-05
1.54363e-05
1.51575e-05
1.50013e-05
1.51045e-05
1.54635e-05
1.59478e-05
1.73912e-05
1.58131e-05
1.60162e-05
1.59277e-05
1.55359e-05
1.52176e-05
1.51262e-05
1.52745e-05
1.56601e-05
1.57956e-05
1.56965e-05
1.56047e-05
1.60468e-05
1.56871e-05
1.51058e-05
1.48167e-05
1.48404e-05
1.50407e-05
1.54597e-05
1.56864e-05
1.53949e-05
1.5493e-05
1.56646e-05
1.5186e-05
1.4687e-05
1.44693e-05
1.45137e-05
1.4733e-05
1.51316e-05
1.54611e-05
1.52562e-05
1.53033e-05
1.53731e-05
1.49326e-05
1.45185e-05
1.43329e-05
1.43539e-05
1.45492e-05
1.49434e-05
1.52935e-05
1.51306e-05
1.52279e-05
1.53399e-05
1.49836e-05
1.4583e-05
1.4372e-05
1.43739e-05
1.45647e-05
1.4945e-05
1.52786e-05
1.51364e-05
1.53207e-05
1.54843e-05
1.5206e-05
1.48281e-05
1.45898e-05
1.45787e-05
1.47934e-05
1.51486e-05
1.54375e-05
1.52921e-05
1.55329e-05
1.57314e-05
1.55904e-05
1.52268e-05
1.49886e-05
1.49621e-05
1.51629e-05
1.55212e-05
1.56898e-05
1.55119e-05
1.58777e-05
1.58376e-05
1.58067e-05
1.55278e-05
1.53331e-05
1.52952e-05
1.54406e-05
1.57277e-05
1.58055e-05
1.58573e-05
1.73799e-05
1.5794e-05
1.54796e-05
1.53119e-05
1.51686e-05
1.51262e-05
1.52179e-05
1.54157e-05
1.58052e-05
1.73961e-05
1.60508e-05
1.63531e-05
1.56712e-05
1.52101e-05
1.48122e-05
1.46126e-05
1.46964e-05
1.50824e-05
1.59062e-05
1.56969e-05
1.62578e-05
1.60654e-05
1.57188e-05
1.52008e-05
1.48709e-05
1.48071e-05
1.4963e-05
1.53164e-05
1.54779e-05
1.5769e-05
1.57397e-05
1.591e-05
1.53658e-05
1.47426e-05
1.44867e-05
1.45535e-05
1.47872e-05
1.51958e-05
1.54002e-05
1.51729e-05
1.5376e-05
1.5392e-05
1.48454e-05
1.43464e-05
1.41646e-05
1.42494e-05
1.44936e-05
1.48883e-05
1.51841e-05
1.49395e-05
1.50002e-05
1.50628e-05
1.4623e-05
1.42222e-05
1.40625e-05
1.41043e-05
1.43078e-05
1.46927e-05
1.50085e-05
1.47797e-05
1.48299e-05
1.50206e-05
1.4711e-05
1.4334e-05
1.41347e-05
1.41379e-05
1.43217e-05
1.46868e-05
1.49854e-05
1.4776e-05
1.48954e-05
1.51559e-05
1.49523e-05
1.46054e-05
1.43705e-05
1.43497e-05
1.45501e-05
1.48843e-05
1.51294e-05
1.49281e-05
1.51736e-05
1.5382e-05
1.5313e-05
1.49872e-05
1.47557e-05
1.47225e-05
1.4908e-05
1.52361e-05
1.53582e-05
1.52008e-05
1.587e-05
1.55153e-05
1.54945e-05
1.52376e-05
1.50548e-05
1.50195e-05
1.5153e-05
1.54133e-05
1.54839e-05
1.58606e-05
1.57037e-05
1.58375e-05
1.52124e-05
1.49709e-05
1.48178e-05
1.47834e-05
1.48882e-05
1.51407e-05
1.58244e-05
1.57003e-05
1.19587e-05
1.67499e-05
1.56327e-05
1.4952e-05
1.44749e-05
1.42733e-05
1.43773e-05
1.48379e-05
1.598e-05
1.1534e-05
1.67523e-05
1.60146e-05
1.54144e-05
1.48244e-05
1.45155e-05
1.44918e-05
1.46622e-05
1.4988e-05
1.52037e-05
1.59593e-05
1.5829e-05
1.56355e-05
1.49825e-05
1.43667e-05
1.41565e-05
1.42607e-05
1.45167e-05
1.49074e-05
1.50919e-05
1.50376e-05
1.51617e-05
1.50161e-05
1.44613e-05
1.39958e-05
1.38582e-05
1.3975e-05
1.42276e-05
1.46053e-05
1.48676e-05
1.46443e-05
1.46376e-05
1.46782e-05
1.42681e-05
1.39035e-05
1.37801e-05
1.38395e-05
1.40407e-05
1.44073e-05
1.46895e-05
1.44386e-05
1.44204e-05
1.46441e-05
1.43819e-05
1.40434e-05
1.38696e-05
1.38787e-05
1.4053e-05
1.44009e-05
1.46693e-05
1.44312e-05
1.45047e-05
1.47836e-05
1.46346e-05
1.43237e-05
1.41082e-05
1.40875e-05
1.42771e-05
1.45951e-05
1.48071e-05
1.45987e-05
1.49133e-05
1.5011e-05
1.49805e-05
1.46862e-05
1.44729e-05
1.44449e-05
1.46231e-05
1.49313e-05
1.50235e-05
1.49792e-05
1.59686e-05
1.52207e-05
1.5151e-05
1.49012e-05
1.47339e-05
1.47113e-05
1.48446e-05
1.50943e-05
1.52037e-05
1.59695e-05
1.1581e-05
1.59913e-05
1.50262e-05
1.46482e-05
1.44714e-05
1.44532e-05
1.45979e-05
1.49668e-05
1.59585e-05
1.15917e-05
2.57697e-05
1.67376e-05
1.55315e-05
1.46569e-05
1.41625e-05
1.40154e-05
1.41927e-05
1.47776e-05
1.58381e-05
2.62505e-05
1.68625e-05
1.58482e-05
1.50399e-05
1.44386e-05
1.41741e-05
1.41981e-05
1.43934e-05
1.47085e-05
1.50177e-05
1.59093e-05
1.58022e-05
1.52512e-05
1.45889e-05
1.4025e-05
1.38596e-05
1.39834e-05
1.4245e-05
1.46142e-05
1.47882e-05
1.50037e-05
1.4842e-05
1.4584e-05
1.40903e-05
1.36873e-05
1.35882e-05
1.37127e-05
1.39504e-05
1.43004e-05
1.45357e-05
1.4403e-05
1.42546e-05
1.4269e-05
1.39199e-05
1.36093e-05
1.3519e-05
1.35802e-05
1.37634e-05
1.41042e-05
1.43593e-05
1.41416e-05
1.40649e-05
1.4261e-05
1.4041e-05
1.37458e-05
1.36007e-05
1.36139e-05
1.37746e-05
1.41042e-05
1.435e-05
1.41348e-05
1.42206e-05
1.44152e-05
1.42892e-05
1.40094e-05
1.38206e-05
1.3808e-05
1.39915e-05
1.42987e-05
1.44888e-05
1.43389e-05
1.4803e-05
1.4657e-05
1.46238e-05
1.43475e-05
1.41573e-05
1.41444e-05
1.43252e-05
1.46239e-05
1.47065e-05
1.48737e-05
1.58282e-05
1.49842e-05
1.48006e-05
1.45404e-05
1.4388e-05
1.43853e-05
1.45308e-05
1.47897e-05
1.49948e-05
1.58303e-05
2.62682e-05
1.58768e-05
1.49319e-05
1.43718e-05
1.41556e-05
1.41579e-05
1.43683e-05
1.49085e-05
1.58502e-05
2.63514e-05
8.00865e-05
1.55076e-05
1.53743e-05
1.4362e-05
1.38841e-05
1.38288e-05
1.41181e-05
1.48185e-05
1.45982e-05
8.10025e-05
1.57195e-05
1.55586e-05
1.46076e-05
1.40415e-05
1.38279e-05
1.38968e-05
1.41186e-05
1.44403e-05
1.48656e-05
1.47444e-05
1.56336e-05
1.47732e-05
1.41869e-05
1.37087e-05
1.35786e-05
1.37006e-05
1.39503e-05
1.42925e-05
1.44639e-05
1.4992e-05
1.44758e-05
1.41237e-05
1.37434e-05
1.34214e-05
1.33455e-05
1.34497e-05
1.36516e-05
1.3966e-05
1.41767e-05
1.42123e-05
1.39034e-05
1.38641e-05
1.35978e-05
1.33479e-05
1.32762e-05
1.33187e-05
1.34694e-05
1.37789e-05
1.40113e-05
1.38931e-05
1.3794e-05
1.38948e-05
1.37117e-05
1.34558e-05
1.33311e-05
1.33395e-05
1.34821e-05
1.37908e-05
1.40169e-05
1.38887e-05
1.40487e-05
1.40632e-05
1.39392e-05
1.36804e-05
1.35144e-05
1.35114e-05
1.36897e-05
1.39854e-05
1.41595e-05
1.41453e-05
1.47741e-05
1.43224e-05
1.42553e-05
1.39868e-05
1.38175e-05
1.38216e-05
1.40063e-05
1.42985e-05
1.43908e-05
1.48211e-05
1.45676e-05
1.47879e-05
1.44494e-05
1.41664e-05
1.40258e-05
1.40398e-05
1.41977e-05
1.44781e-05
1.48193e-05
1.45744e-05
8.09578e-05
1.46328e-05
1.48782e-05
1.41591e-05
1.38903e-05
1.39091e-05
1.41948e-05
1.48919e-05
1.46211e-05
8.10637e-05
0.000188097
1.24706e-05
1.50349e-05
1.41024e-05
1.36692e-05
1.3717e-05
1.41221e-05
1.4756e-05
1.19726e-05
0.000189191
1.28012e-05
1.52236e-05
1.42157e-05
1.3696e-05
1.35316e-05
1.36364e-05
1.38808e-05
1.42308e-05
1.47444e-05
1.21895e-05
1.52582e-05
1.43447e-05
1.38524e-05
1.34694e-05
1.33616e-05
1.34646e-05
1.36888e-05
1.40017e-05
1.4194e-05
1.48476e-05
1.41715e-05
1.37435e-05
1.34868e-05
1.32409e-05
1.31659e-05
1.32272e-05
1.33822e-05
1.36615e-05
1.386e-05
1.40984e-05
1.36717e-05
1.35553e-05
1.33677e-05
1.31631e-05
1.30858e-05
1.30891e-05
1.32002e-05
1.34811e-05
1.37019e-05
1.37372e-05
1.36619e-05
1.36226e-05
1.34643e-05
1.32266e-05
1.31014e-05
1.30915e-05
1.32113e-05
1.34995e-05
1.37145e-05
1.37318e-05
1.40096e-05
1.37964e-05
1.36557e-05
1.34023e-05
1.32419e-05
1.32393e-05
1.34087e-05
1.36907e-05
1.38574e-05
1.40328e-05
1.46743e-05
1.40781e-05
1.39456e-05
1.36735e-05
1.35125e-05
1.35239e-05
1.37073e-05
1.39901e-05
1.41207e-05
1.46626e-05
1.19662e-05
1.46437e-05
1.41739e-05
1.38464e-05
1.3705e-05
1.37244e-05
1.38894e-05
1.42085e-05
1.46658e-05
1.19381e-05
0.000189115
1.1998e-05
1.47149e-05
1.40374e-05
1.37191e-05
1.37433e-05
1.40885e-05
1.47508e-05
1.2005e-05
0.000189175
0.000367724
1.74058e-05
1.41718e-05
1.38775e-05
1.35129e-05
1.36238e-05
1.40601e-05
1.40922e-05
1.8021e-05
0.000368481
1.7759e-05
1.47476e-05
1.38958e-05
1.33884e-05
1.32511e-05
1.33728e-05
1.36312e-05
1.40343e-05
1.44492e-05
1.81777e-05
1.43408e-05
1.39944e-05
1.35472e-05
1.32429e-05
1.31417e-05
1.32149e-05
1.34124e-05
1.3703e-05
1.39497e-05
1.41269e-05
1.39134e-05
1.34295e-05
1.3267e-05
1.30737e-05
1.29753e-05
1.29836e-05
1.30989e-05
1.33549e-05
1.35587e-05
1.39618e-05
1.35315e-05
1.33073e-05
1.3176e-05
1.29886e-05
1.2878e-05
1.28324e-05
1.29121e-05
1.31772e-05
1.34013e-05
1.36168e-05
1.35955e-05
1.33974e-05
1.3249e-05
1.30062e-05
1.2855e-05
1.28164e-05
1.29186e-05
1.31943e-05
1.34106e-05
1.36005e-05
1.39541e-05
1.35684e-05
1.34005e-05
1.31349e-05
1.29588e-05
1.29463e-05
1.31057e-05
1.33762e-05
1.35523e-05
1.38819e-05
1.40077e-05
1.38911e-05
1.36619e-05
1.33743e-05
1.32048e-05
1.32114e-05
1.33875e-05
1.36653e-05
1.38717e-05
1.39214e-05
1.80207e-05
1.43691e-05
1.39564e-05
1.35558e-05
1.33964e-05
1.34075e-05
1.35771e-05
1.39567e-05
1.43457e-05
1.79704e-05
0.000368422
1.80913e-05
1.40108e-05
1.39108e-05
1.3588e-05
1.36023e-05
1.39367e-05
1.4018e-05
1.80473e-05
0.000368354
0.000627883
4.6549e-05
1.21947e-05
1.34393e-05
1.33156e-05
1.34575e-05
1.37209e-05
1.2371e-05
4.75169e-05
0.000627757
4.68757e-05
1.38646e-05
1.37086e-05
1.31794e-05
1.30486e-05
1.31677e-05
1.34315e-05
1.38973e-05
1.37397e-05
4.75343e-05
1.23577e-05
1.38019e-05
1.33395e-05
1.30803e-05
1.29745e-05
1.30153e-05
1.31863e-05
1.34625e-05
1.37967e-05
1.24232e-05
1.34899e-05
1.32379e-05
1.31178e-05
1.29475e-05
1.28134e-05
1.27742e-05
1.28621e-05
1.31049e-05
1.33378e-05
1.36218e-05
1.3384e-05
1.31472e-05
1.30385e-05
1.28435e-05
1.26873e-05
1.25979e-05
1.26605e-05
1.29213e-05
1.3165e-05
1.34665e-05
1.34809e-05
1.32306e-05
1.3078e-05
1.28153e-05
1.26277e-05
1.25621e-05
1.26546e-05
1.29257e-05
1.31602e-05
1.34348e-05
1.36468e-05
1.33902e-05
1.31872e-05
1.29046e-05
1.27064e-05
1.26794e-05
1.28308e-05
1.30946e-05
1.33055e-05
1.35194e-05
1.23053e-05
1.37652e-05
1.3428e-05
1.31209e-05
1.29369e-05
1.29328e-05
1.31025e-05
1.33837e-05
1.37035e-05
1.21877e-05
4.7429e-05
1.36733e-05
1.38165e-05
1.33301e-05
1.31422e-05
1.31425e-05
1.33244e-05
1.37874e-05
1.36283e-05
4.74349e-05
0.000627643
4.75652e-05
1.23255e-05
1.35748e-05
1.34214e-05
1.34204e-05
1.35663e-05
1.22881e-05
4.75377e-05
0.00062757
0.000965058
0.000105921
1.17099e-05
1.25354e-05
1.28999e-05
1.30099e-05
1.27608e-05
1.20682e-05
0.000106592
0.000962786
0.000106318
1.2324e-05
1.36373e-05
1.30746e-05
1.2907e-05
1.29909e-05
1.32431e-05
1.37441e-05
1.23106e-05
0.000106506
1.18651e-05
1.37147e-05
1.32034e-05
1.29343e-05
1.27976e-05
1.27982e-05
1.29475e-05
1.32238e-05
1.36352e-05
1.2175e-05
1.25676e-05
1.3123e-05
1.29739e-05
1.27864e-05
1.2603e-05
1.25264e-05
1.2607e-05
1.28483e-05
1.31267e-05
1.26782e-05
1.29593e-05
1.30005e-05
1.28648e-05
1.26375e-05
1.24311e-05
1.23151e-05
1.23831e-05
1.26519e-05
1.29264e-05
1.2982e-05
1.30181e-05
1.30393e-05
1.28546e-05
1.25641e-05
1.23404e-05
1.22606e-05
1.23616e-05
1.26388e-05
1.29054e-05
1.29324e-05
1.2663e-05
1.31859e-05
1.29307e-05
1.26287e-05
1.24102e-05
1.23768e-05
1.25301e-05
1.27973e-05
1.30691e-05
1.25387e-05
1.19756e-05
1.36032e-05
1.3174e-05
1.28383e-05
1.26412e-05
1.26317e-05
1.28038e-05
1.3111e-05
1.35381e-05
1.19274e-05
0.000106445
1.22472e-05
1.36528e-05
1.31024e-05
1.28828e-05
1.28792e-05
1.30898e-05
1.36244e-05
1.22083e-05
0.000106441
0.00096269
0.000106658
1.21141e-05
1.26184e-05
1.29207e-05
1.29133e-05
1.25955e-05
1.20368e-05
0.00010659
0.000962515
0.00136289
0.000205091
2.37456e-05
1.12837e-05
1.19553e-05
1.2015e-05
1.14142e-05
2.41038e-05
0.000205288
0.00135846
0.000205658
1.11038e-05
1.35436e-05
1.30398e-05
1.28272e-05
1.28665e-05
1.30964e-05
1.35257e-05
1.13129e-05
0.000205105
2.39257e-05
1.36099e-05
1.31473e-05
1.28289e-05
1.26545e-05
1.26186e-05
1.27476e-05
1.30357e-05
1.34089e-05
2.41303e-05
1.13102e-05
1.30678e-05
1.28537e-05
1.26283e-05
1.24029e-05
1.23067e-05
1.23893e-05
1.26268e-05
1.29472e-05
1.13228e-05
1.19936e-05
1.28806e-05
1.26862e-05
1.24213e-05
1.21794e-05
1.20589e-05
1.21449e-05
1.24185e-05