/*--------------------------------*- C++ -*----------------------------------*\
| =========                 |                                                 |
| \\      /  F ield         | OpenFOAM: The Open Source CFD Toolbox           |
|  \\    /   O peration     | Version:  2406                                  |
|   \\  /    A nd           | Website:  www.openfoam.com                      |
|    \\/     M anipulation  |                                                 |
\*---------------------------------------------------------------------------*/
FoamFile
{
    version     2.0;
    format      ascii;
    arch        "LSB;label=32;scalar=64";
    class       volScalarField;
    location    "100";
    object      turbulenceProperties:nuEff;
}
// * * * * * * * * * * * * * * * * * * * * * * * * * * * * * * * * * * * * * //

dimensions      [0 2 -1 0 0 0 0];

internalField   nonuniform List<scalar> 
25000
(
1.58872e-05
1.59286e-05
1.59544e-05
1.59672e-05
1.59728e-05
1.59728e-05
1.59672e-05
1.59545e-05
1.59306e-05
1.58872e-05
1.59307e-05
1.59676e-05
1.59884e-05
1.59999e-05
1.60055e-05
1.60055e-05
1.6e-05
1.59934e-05
1.59675e-05
1.59285e-05
1.59545e-05
1.59935e-05
1.60109e-05
1.60186e-05
1.60238e-05
1.60238e-05
1.60192e-05
1.60109e-05
1.59883e-05
1.59544e-05
1.59672e-05
1.6e-05
1.60192e-05
1.603e-05
1.60345e-05
1.60349e-05
1.603e-05
1.60185e-05
1.59999e-05
1.59672e-05
1.59728e-05
1.60055e-05
1.60238e-05
1.60349e-05
1.60416e-05
1.60416e-05
1.60345e-05
1.60238e-05
1.60055e-05
1.59728e-05
1.59728e-05
1.60055e-05
1.60238e-05
1.60345e-05
1.60416e-05
1.60415e-05
1.60345e-05
1.60238e-05
1.60055e-05
1.59728e-05
1.59672e-05
1.59999e-05
1.60185e-05
1.603e-05
1.60349e-05
1.60349e-05
1.603e-05
1.60185e-05
1.59999e-05
1.59672e-05
1.59544e-05
1.59883e-05
1.60109e-05
1.60192e-05
1.60238e-05
1.60238e-05
1.60192e-05
1.60109e-05
1.59883e-05
1.59544e-05
1.59285e-05
1.59675e-05
1.59934e-05
1.6e-05
1.60055e-05
1.60055e-05
1.6e-05
1.59934e-05
1.59675e-05
1.59285e-05
1.58872e-05
1.59306e-05
1.59545e-05
1.59672e-05
1.59728e-05
1.59728e-05
1.59672e-05
1.59545e-05
1.59306e-05
1.58872e-05
1.55257e-05
1.56525e-05
1.57288e-05
1.57676e-05
1.57846e-05
1.57845e-05
1.57675e-05
1.57294e-05
1.56574e-05
1.55255e-05
1.56576e-05
1.57692e-05
1.58312e-05
1.58655e-05
1.5882e-05
1.58819e-05
1.58661e-05
1.58442e-05
1.57689e-05
1.56523e-05
1.57295e-05
1.58444e-05
1.58976e-05
1.59214e-05
1.59367e-05
1.59367e-05
1.59231e-05
1.58975e-05
1.5831e-05
1.57286e-05
1.57676e-05
1.58662e-05
1.59232e-05
1.59551e-05
1.59687e-05
1.59698e-05
1.5955e-05
1.59213e-05
1.58653e-05
1.57675e-05
1.57846e-05
1.5882e-05
1.59368e-05
1.59698e-05
1.59893e-05
1.59893e-05
1.59686e-05
1.59366e-05
1.58819e-05
1.57845e-05
1.57845e-05
1.58819e-05
1.59366e-05
1.59687e-05
1.59893e-05
1.59892e-05
1.59686e-05
1.59366e-05
1.58819e-05
1.57845e-05
1.57675e-05
1.58653e-05
1.59213e-05
1.5955e-05
1.59698e-05
1.59698e-05
1.5955e-05
1.59212e-05
1.58653e-05
1.57675e-05
1.57286e-05
1.5831e-05
1.58975e-05
1.59231e-05
1.59367e-05
1.59367e-05
1.59231e-05
1.58975e-05
1.5831e-05
1.57286e-05
1.56523e-05
1.57689e-05
1.58442e-05
1.58661e-05
1.58819e-05
1.58819e-05
1.58661e-05
1.58442e-05
1.57689e-05
1.56523e-05
1.55255e-05
1.56574e-05
1.57294e-05
1.57675e-05
1.57845e-05
1.57845e-05
1.57675e-05
1.57294e-05
1.56574e-05
1.55255e-05
1.51741e-05
1.53833e-05
1.55075e-05
1.55719e-05
1.56001e-05
1.56e-05
1.55719e-05
1.5509e-05
1.53903e-05
1.5174e-05
1.53906e-05
1.55749e-05
1.5677e-05
1.57332e-05
1.57602e-05
1.57602e-05
1.57347e-05
1.56961e-05
1.55746e-05
1.53831e-05
1.55092e-05
1.56964e-05
1.57852e-05
1.58257e-05
1.58506e-05
1.58508e-05
1.58284e-05
1.57851e-05
1.56768e-05
1.55074e-05
1.5572e-05
1.57349e-05
1.58285e-05
1.58808e-05
1.59036e-05
1.59053e-05
1.58807e-05
1.58255e-05
1.57331e-05
1.55718e-05
1.56001e-05
1.57603e-05
1.58508e-05
1.59053e-05
1.5937e-05
1.5937e-05
1.59034e-05
1.58504e-05
1.57601e-05
1.56e-05
1.56e-05
1.57602e-05
1.58505e-05
1.59036e-05
1.5937e-05
1.59369e-05
1.59034e-05
1.58504e-05
1.57601e-05
1.56e-05
1.55718e-05
1.57331e-05
1.58255e-05
1.58807e-05
1.59053e-05
1.59053e-05
1.58807e-05
1.58255e-05
1.57331e-05
1.55718e-05
1.55074e-05
1.56768e-05
1.57851e-05
1.58284e-05
1.58507e-05
1.58507e-05
1.58283e-05
1.5785e-05
1.56768e-05
1.55074e-05
1.53831e-05
1.55746e-05
1.56962e-05
1.57347e-05
1.57602e-05
1.57602e-05
1.57347e-05
1.56961e-05
1.55746e-05
1.53831e-05
1.5174e-05
1.53904e-05
1.5509e-05
1.55719e-05
1.56e-05
1.56e-05
1.55719e-05
1.5509e-05
1.53904e-05
1.5174e-05
1.48393e-05
1.51232e-05
1.52922e-05
1.53811e-05
1.54201e-05
1.54201e-05
1.53812e-05
1.52947e-05
1.51319e-05
1.48394e-05
1.5132e-05
1.53855e-05
1.55261e-05
1.56034e-05
1.56405e-05
1.56406e-05
1.5606e-05
1.55499e-05
1.53853e-05
1.51232e-05
1.52948e-05
1.55501e-05
1.56741e-05
1.57314e-05
1.57655e-05
1.57659e-05
1.5735e-05
1.56739e-05
1.55259e-05
1.52922e-05
1.53813e-05
1.56061e-05
1.57351e-05
1.58072e-05
1.58392e-05
1.58413e-05
1.58071e-05
1.57313e-05
1.56033e-05
1.53811e-05
1.54202e-05
1.56407e-05
1.57659e-05
1.58413e-05
1.58847e-05
1.58847e-05
1.5839e-05
1.57654e-05
1.56405e-05
1.54202e-05
1.54201e-05
1.56405e-05
1.57655e-05
1.58392e-05
1.58847e-05
1.58846e-05
1.5839e-05
1.57654e-05
1.56405e-05
1.54202e-05
1.53811e-05
1.56034e-05
1.57314e-05
1.58072e-05
1.58414e-05
1.58414e-05
1.58071e-05
1.57313e-05
1.56033e-05
1.53812e-05
1.52922e-05
1.55259e-05
1.56739e-05
1.5735e-05
1.57659e-05
1.57659e-05
1.5735e-05
1.56739e-05
1.55259e-05
1.52922e-05
1.51233e-05
1.53853e-05
1.555e-05
1.5606e-05
1.56406e-05
1.56406e-05
1.5606e-05
1.555e-05
1.53853e-05
1.51233e-05
1.48395e-05
1.5132e-05
1.52948e-05
1.53813e-05
1.54202e-05
1.54201e-05
1.53813e-05
1.52948e-05
1.5132e-05
1.48395e-05
1.45247e-05
1.48733e-05
1.50835e-05
1.51958e-05
1.52451e-05
1.52451e-05
1.51961e-05
1.50873e-05
1.48835e-05
1.45254e-05
1.48833e-05
1.5201e-05
1.53783e-05
1.54761e-05
1.55228e-05
1.55231e-05
1.54797e-05
1.5406e-05
1.52011e-05
1.48738e-05
1.50872e-05
1.5406e-05
1.55641e-05
1.56385e-05
1.56814e-05
1.5682e-05
1.56429e-05
1.55641e-05
1.53784e-05
1.50839e-05
1.51962e-05
1.54798e-05
1.5643e-05
1.57343e-05
1.57753e-05
1.57777e-05
1.57342e-05
1.56385e-05
1.54761e-05
1.5196e-05
1.52452e-05
1.55231e-05
1.56821e-05
1.57777e-05
1.58323e-05
1.58322e-05
1.5775e-05
1.56814e-05
1.55229e-05
1.52453e-05
1.52452e-05
1.55229e-05
1.56815e-05
1.57753e-05
1.58323e-05
1.58323e-05
1.5775e-05
1.56814e-05
1.55229e-05
1.52453e-05
1.51959e-05
1.54761e-05
1.56386e-05
1.57343e-05
1.5778e-05
1.57779e-05
1.57342e-05
1.56385e-05
1.54761e-05
1.5196e-05
1.50839e-05
1.53784e-05
1.55641e-05
1.5643e-05
1.56821e-05
1.56821e-05
1.56429e-05
1.55641e-05
1.53784e-05
1.50839e-05
1.48738e-05
1.52012e-05
1.54061e-05
1.54798e-05
1.55232e-05
1.55231e-05
1.54798e-05
1.54061e-05
1.52012e-05
1.48739e-05
1.45256e-05
1.48837e-05
1.50875e-05
1.51963e-05
1.52453e-05
1.52453e-05
1.51963e-05
1.50875e-05
1.48837e-05
1.45256e-05
1.42303e-05
1.46337e-05
1.48817e-05
1.50158e-05
1.5075e-05
1.50751e-05
1.50165e-05
1.48867e-05
1.46453e-05
1.42317e-05
1.46446e-05
1.50214e-05
1.52337e-05
1.53511e-05
1.54071e-05
1.54075e-05
1.53558e-05
1.52645e-05
1.5022e-05
1.46348e-05
1.48864e-05
1.52642e-05
1.54553e-05
1.55468e-05
1.55982e-05
1.55991e-05
1.55519e-05
1.54555e-05
1.52341e-05
1.48824e-05
1.50165e-05
1.53558e-05
1.55518e-05
1.56618e-05
1.57117e-05
1.57145e-05
1.56619e-05
1.55469e-05
1.53513e-05
1.50163e-05
1.50752e-05
1.54076e-05
1.55991e-05
1.57145e-05
1.57797e-05
1.57797e-05
1.57115e-05
1.55983e-05
1.54072e-05
1.50753e-05
1.50752e-05
1.54072e-05
1.55984e-05
1.57119e-05
1.57798e-05
1.57798e-05
1.57115e-05
1.55983e-05
1.54073e-05
1.50754e-05
1.50162e-05
1.53513e-05
1.5547e-05
1.5662e-05
1.57149e-05
1.57149e-05
1.5662e-05
1.55469e-05
1.53513e-05
1.50163e-05
1.48824e-05
1.52341e-05
1.54556e-05
1.5552e-05
1.55993e-05
1.55993e-05
1.5552e-05
1.54556e-05
1.52341e-05
1.48825e-05
1.46348e-05
1.5022e-05
1.52646e-05
1.53559e-05
1.54077e-05
1.54077e-05
1.53559e-05
1.52646e-05
1.50221e-05
1.46349e-05
1.42318e-05
1.46455e-05
1.4887e-05
1.50168e-05
1.50754e-05
1.50754e-05
1.50168e-05
1.4887e-05
1.46455e-05
1.42319e-05
1.39539e-05
1.44037e-05
1.46859e-05
1.48405e-05
1.4909e-05
1.49092e-05
1.48415e-05
1.46919e-05
1.4416e-05
1.39555e-05
1.4415e-05
1.4846e-05
1.50917e-05
1.5228e-05
1.5293e-05
1.52936e-05
1.52338e-05
1.51248e-05
1.4847e-05
1.44049e-05
1.46914e-05
1.51243e-05
1.53475e-05
1.5456e-05
1.55158e-05
1.55169e-05
1.54618e-05
1.53479e-05
1.50924e-05
1.46868e-05
1.48413e-05
1.52336e-05
1.54616e-05
1.55898e-05
1.56485e-05
1.56515e-05
1.559e-05
1.54563e-05
1.52284e-05
1.48411e-05
1.49092e-05
1.52937e-05
1.55169e-05
1.56515e-05
1.5727e-05
1.5727e-05
1.56483e-05
1.55159e-05
1.52932e-05
1.49095e-05
1.49093e-05
1.52932e-05
1.5516e-05
1.56487e-05
1.57272e-05
1.57271e-05
1.56483e-05
1.55159e-05
1.52933e-05
1.49095e-05
1.4841e-05
1.52284e-05
1.54564e-05
1.55902e-05
1.56521e-05
1.5652e-05
1.55901e-05
1.54563e-05
1.52285e-05
1.48411e-05
1.46867e-05
1.50924e-05
1.5348e-05
1.54619e-05
1.55172e-05
1.55172e-05
1.54619e-05
1.5348e-05
1.50925e-05
1.46869e-05
1.4405e-05
1.48471e-05
1.5125e-05
1.5234e-05
1.52939e-05
1.52939e-05
1.5234e-05
1.5125e-05
1.48471e-05
1.44051e-05
1.39557e-05
1.44162e-05
1.46922e-05
1.48418e-05
1.49096e-05
1.49096e-05
1.48418e-05
1.46922e-05
1.44162e-05
1.39558e-05
1.36947e-05
1.41827e-05
1.44954e-05
1.46692e-05
1.47467e-05
1.47469e-05
1.46706e-05
1.45025e-05
1.41954e-05
1.36963e-05
1.41943e-05
1.46745e-05
1.4952e-05
1.51067e-05
1.51804e-05
1.51812e-05
1.51135e-05
1.49869e-05
1.46759e-05
1.4184e-05
1.45018e-05
1.49861e-05
1.52405e-05
1.5366e-05
1.5434e-05
1.54353e-05
1.53724e-05
1.52412e-05
1.4953e-05
1.44965e-05
1.46703e-05
1.51132e-05
1.53721e-05
1.55182e-05
1.55855e-05
1.55887e-05
1.55185e-05
1.53665e-05
1.51073e-05
1.46698e-05
1.47469e-05
1.51812e-05
1.54353e-05
1.55887e-05
1.56741e-05
1.56742e-05
1.55853e-05
1.54341e-05
1.51807e-05
1.47471e-05
1.47469e-05
1.51806e-05
1.54343e-05
1.55858e-05
1.56744e-05
1.56744e-05
1.55854e-05
1.54342e-05
1.51807e-05
1.47471e-05
1.46697e-05
1.51073e-05
1.53666e-05
1.55187e-05
1.55894e-05
1.55894e-05
1.55187e-05
1.53665e-05
1.51073e-05
1.46699e-05
1.44965e-05
1.4953e-05
1.52413e-05
1.53726e-05
1.54357e-05
1.54357e-05
1.53726e-05
1.52413e-05
1.49531e-05
1.44966e-05
1.41841e-05
1.4676e-05
1.49871e-05
1.51137e-05
1.51815e-05
1.51815e-05
1.51137e-05
1.49871e-05
1.4676e-05
1.41841e-05
1.36965e-05
1.41956e-05
1.45027e-05
1.46708e-05
1.47473e-05
1.47472e-05
1.46708e-05
1.45027e-05
1.41956e-05
1.36966e-05
1.34535e-05
1.39711e-05
1.43106e-05
1.45019e-05
1.45878e-05
1.45882e-05
1.45037e-05
1.43184e-05
1.39841e-05
1.34551e-05
1.39828e-05
1.45071e-05
1.48146e-05
1.4987e-05
1.50691e-05
1.50701e-05
1.49948e-05
1.48508e-05
1.45087e-05
1.39724e-05
1.43175e-05
1.48497e-05
1.51345e-05
1.52768e-05
1.53528e-05
1.53543e-05
1.52838e-05
1.51354e-05
1.48158e-05
1.43117e-05
1.45032e-05
1.49942e-05
1.52833e-05
1.54469e-05
1.55228e-05
1.55261e-05
1.54474e-05
1.52774e-05
1.49878e-05
1.45026e-05
1.4588e-05
1.50701e-05
1.53542e-05
1.5526e-05
1.56211e-05
1.56212e-05
1.55226e-05
1.5353e-05
1.50694e-05
1.45882e-05
1.4588e-05
1.50694e-05
1.53531e-05
1.55231e-05
1.56215e-05
1.56215e-05
1.55227e-05
1.5353e-05
1.50694e-05
1.45882e-05
1.45025e-05
1.49878e-05
1.52775e-05
1.54476e-05
1.5527e-05
1.5527e-05
1.54476e-05
1.52775e-05
1.49878e-05
1.45026e-05
1.43117e-05
1.48159e-05
1.51355e-05
1.5284e-05
1.53548e-05
1.53548e-05
1.5284e-05
1.51355e-05
1.48159e-05
1.43117e-05
1.39725e-05
1.45088e-05
1.48509e-05
1.4995e-05
1.50705e-05
1.50705e-05
1.49949e-05
1.48509e-05
1.45088e-05
1.39725e-05
1.34552e-05
1.39841e-05
1.43185e-05
1.45039e-05
1.45884e-05
1.45884e-05
1.45038e-05
1.43185e-05
1.39841e-05
1.34552e-05
1.32329e-05
1.377e-05
1.4132e-05
1.43391e-05
1.44328e-05
1.44332e-05
1.43411e-05
1.41403e-05
1.37829e-05
1.32343e-05
1.37817e-05
1.4344e-05
1.46796e-05
1.4869e-05
1.49592e-05
1.49605e-05
1.48777e-05
1.47167e-05
1.43458e-05
1.37712e-05
1.41393e-05
1.47154e-05
1.50295e-05
1.51884e-05
1.52722e-05
1.5274e-05
1.5196e-05
1.50306e-05
1.46811e-05
1.4133e-05
1.43405e-05
1.4877e-05
1.51953e-05
1.53761e-05
1.54603e-05
1.54638e-05
1.53766e-05
1.51892e-05
1.48699e-05
1.43397e-05
1.44329e-05
1.49603e-05
1.52738e-05
1.54637e-05
1.55681e-05
1.55682e-05
1.54602e-05
1.52725e-05
1.49595e-05
1.4433e-05
1.44329e-05
1.49595e-05
1.52726e-05
1.54607e-05
1.55685e-05
1.55685e-05
1.54602e-05
1.52725e-05
1.49595e-05
1.4433e-05
1.43396e-05
1.48699e-05
1.51893e-05
1.53769e-05
1.54648e-05
1.54648e-05
1.53769e-05
1.51893e-05
1.48699e-05
1.43397e-05
1.41329e-05
1.46811e-05
1.50307e-05
1.51961e-05
1.52746e-05
1.52746e-05
1.51961e-05
1.50307e-05
1.46811e-05
1.4133e-05
1.37712e-05
1.43458e-05
1.47168e-05
1.48778e-05
1.49609e-05
1.49609e-05
1.48778e-05
1.47168e-05
1.43458e-05
1.37712e-05
1.32342e-05
1.37828e-05
1.41403e-05
1.43412e-05
1.44334e-05
1.44333e-05
1.43412e-05
1.41403e-05
1.37828e-05
1.32342e-05
1.30359e-05
1.35805e-05
1.39601e-05
1.41811e-05
1.42819e-05
1.42823e-05
1.41835e-05
1.39689e-05
1.35931e-05
1.30369e-05
1.3592e-05
1.41859e-05
1.45474e-05
1.47529e-05
1.48508e-05
1.48523e-05
1.47623e-05
1.45849e-05
1.41876e-05
1.35815e-05
1.39679e-05
1.45835e-05
1.49256e-05
1.51008e-05
1.51923e-05
1.51943e-05
1.51089e-05
1.49269e-05
1.45488e-05
1.3961e-05
1.41828e-05
1.47614e-05
1.5108e-05
1.53057e-05
1.53981e-05
1.54017e-05
1.53063e-05
1.51018e-05
1.47539e-05
1.41817e-05
1.4282e-05
1.48521e-05
1.51941e-05
1.54015e-05
1.5515e-05
1.55152e-05
1.5398e-05
1.51926e-05
1.48511e-05
1.42821e-05
1.42819e-05
1.48511e-05
1.51928e-05
1.53985e-05
1.55155e-05
1.55155e-05
1.53981e-05
1.51926e-05
1.48511e-05
1.4282e-05
1.41816e-05
1.47538e-05
1.51018e-05
1.53066e-05
1.54028e-05
1.54028e-05
1.53066e-05
1.51018e-05
1.47539e-05
1.41816e-05
1.39609e-05
1.45488e-05
1.49269e-05
1.5109e-05
1.5195e-05
1.5195e-05
1.5109e-05
1.49269e-05
1.45488e-05
1.3961e-05
1.35814e-05
1.41875e-05
1.45849e-05
1.47623e-05
1.48527e-05
1.48527e-05
1.47623e-05
1.45849e-05
1.41875e-05
1.35814e-05
1.30367e-05
1.35929e-05
1.39688e-05
1.41834e-05
1.42824e-05
1.42824e-05
1.41834e-05
1.39688e-05
1.35929e-05
1.30367e-05
1.28679e-05
1.34041e-05
1.37958e-05
1.40286e-05
1.41356e-05
1.41361e-05
1.40311e-05
1.38048e-05
1.34163e-05
1.28685e-05
1.34154e-05
1.40329e-05
1.44179e-05
1.46387e-05
1.4744e-05
1.47457e-05
1.46487e-05
1.44556e-05
1.40345e-05
1.34047e-05
1.38039e-05
1.44541e-05
1.4823e-05
1.50142e-05
1.51132e-05
1.51153e-05
1.50226e-05
1.48244e-05
1.44193e-05
1.37965e-05
1.40304e-05
1.46478e-05
1.50217e-05
1.52358e-05
1.53362e-05
1.53399e-05
1.52365e-05
1.50152e-05
1.46397e-05
1.4029e-05
1.41357e-05
1.47454e-05
1.51151e-05
1.53397e-05
1.5462e-05
1.54622e-05
1.53361e-05
1.51134e-05
1.47443e-05
1.41356e-05
1.41355e-05
1.47443e-05
1.51136e-05
1.53367e-05
1.54625e-05
1.54625e-05
1.53362e-05
1.51134e-05
1.47443e-05
1.41356e-05
1.40289e-05
1.46396e-05
1.50152e-05
1.52367e-05
1.5341e-05
1.53411e-05
1.52367e-05
1.50152e-05
1.46396e-05
1.40289e-05
1.37965e-05
1.44193e-05
1.48244e-05
1.50227e-05
1.5116e-05
1.5116e-05
1.50227e-05
1.48244e-05
1.44193e-05
1.37964e-05
1.34046e-05
1.40344e-05
1.44555e-05
1.46487e-05
1.47461e-05
1.47461e-05
1.46487e-05
1.44555e-05
1.40344e-05
1.34046e-05
1.28682e-05
1.3416e-05
1.38046e-05
1.40309e-05
1.41361e-05
1.41361e-05
1.4031e-05
1.38046e-05
1.3416e-05
1.28683e-05
1.27369e-05
1.32429e-05
1.364e-05
1.38819e-05
1.39943e-05
1.39948e-05
1.38846e-05
1.36491e-05
1.32546e-05
1.2737e-05
1.32542e-05
1.3886e-05
1.42916e-05
1.45266e-05
1.46389e-05
1.46407e-05
1.4537e-05
1.4329e-05
1.38872e-05
1.32433e-05
1.36484e-05
1.43278e-05
1.47219e-05
1.49286e-05
1.50348e-05
1.5037e-05
1.49371e-05
1.47231e-05
1.42928e-05
1.36405e-05
1.3884e-05
1.45361e-05
1.49363e-05
1.51664e-05
1.52746e-05
1.52784e-05
1.5167e-05
1.49295e-05
1.45275e-05
1.38822e-05
1.39945e-05
1.46404e-05
1.50368e-05
1.52782e-05
1.5409e-05
1.54092e-05
1.52744e-05
1.50349e-05
1.4639e-05
1.39942e-05
1.39943e-05
1.46392e-05
1.50352e-05
1.52751e-05
1.54095e-05
1.54095e-05
1.52745e-05
1.50349e-05
1.4639e-05
1.39942e-05
1.38822e-05
1.45275e-05
1.49295e-05
1.51673e-05
1.52796e-05
1.52796e-05
1.51673e-05
1.49295e-05
1.45274e-05
1.38821e-05
1.36405e-05
1.42928e-05
1.47231e-05
1.49372e-05
1.50378e-05
1.50378e-05
1.49372e-05
1.47231e-05
1.42927e-05
1.36404e-05
1.32432e-05
1.3887e-05
1.43288e-05
1.45369e-05
1.46411e-05
1.46411e-05
1.45369e-05
1.43288e-05
1.3887e-05
1.32431e-05
1.27367e-05
1.32543e-05
1.36488e-05
1.38844e-05
1.39947e-05
1.39947e-05
1.38844e-05
1.36488e-05
1.32543e-05
1.27367e-05
1.26587e-05
1.31008e-05
1.34938e-05
1.37418e-05
1.38584e-05
1.3859e-05
1.37446e-05
1.35029e-05
1.31119e-05
1.26581e-05
1.31119e-05
1.37455e-05
1.41685e-05
1.44167e-05
1.45355e-05
1.45374e-05
1.44273e-05
1.42054e-05
1.37462e-05
1.31008e-05
1.35026e-05
1.42045e-05
1.46221e-05
1.48438e-05
1.49571e-05
1.49594e-05
1.48525e-05
1.46232e-05
1.41694e-05
1.34941e-05
1.37442e-05
1.44266e-05
1.48518e-05
1.50975e-05
1.52134e-05
1.52172e-05
1.50981e-05
1.48446e-05
1.44174e-05
1.3742e-05
1.38588e-05
1.45372e-05
1.49592e-05
1.5217e-05
1.5356e-05
1.53562e-05
1.52131e-05
1.49571e-05
1.45355e-05
1.38583e-05
1.38585e-05
1.45358e-05
1.49575e-05
1.52139e-05
1.53565e-05
1.53566e-05
1.52132e-05
1.49571e-05
1.45355e-05
1.38583e-05
1.37421e-05
1.44174e-05
1.48447e-05
1.50984e-05
1.52184e-05
1.52184e-05
1.50984e-05
1.48447e-05
1.44173e-05
1.37419e-05
1.34941e-05
1.41694e-05
1.46232e-05
1.48526e-05
1.49602e-05
1.49602e-05
1.48526e-05
1.46232e-05
1.41693e-05
1.3494e-05
1.31007e-05
1.37461e-05
1.42052e-05
1.44272e-05
1.45378e-05
1.45378e-05
1.44272e-05
1.42052e-05
1.3746e-05
1.31005e-05
1.26579e-05
1.31116e-05
1.35026e-05
1.37444e-05
1.38589e-05
1.38589e-05
1.37444e-05
1.35026e-05
1.31116e-05
1.26579e-05
1.26556e-05
1.29834e-05
1.33593e-05
1.36093e-05
1.37288e-05
1.37294e-05
1.36121e-05
1.33682e-05
1.29938e-05
1.26544e-05
1.29944e-05
1.36127e-05
1.40489e-05
1.4309e-05
1.44339e-05
1.44359e-05
1.43197e-05
1.40852e-05
1.36129e-05
1.29829e-05
1.33682e-05
1.40846e-05
1.4524e-05
1.47601e-05
1.48802e-05
1.48826e-05
1.47688e-05
1.45248e-05
1.40495e-05
1.33593e-05
1.3612e-05
1.43193e-05
1.47682e-05
1.50292e-05
1.51525e-05
1.51563e-05
1.50296e-05
1.47608e-05
1.43095e-05
1.36093e-05
1.37293e-05
1.44358e-05
1.48825e-05
1.51561e-05
1.53032e-05
1.53033e-05
1.51521e-05
1.48801e-05
1.44339e-05
1.37286e-05
1.37289e-05
1.44342e-05
1.48806e-05
1.51529e-05
1.53037e-05
1.53037e-05
1.51522e-05
1.48801e-05
1.44338e-05
1.37286e-05
1.36094e-05
1.43096e-05
1.47609e-05
1.503e-05
1.51575e-05
1.51575e-05
1.50299e-05
1.47608e-05
1.43095e-05
1.36092e-05
1.33593e-05
1.40495e-05
1.45248e-05
1.4769e-05
1.48834e-05
1.48834e-05
1.47689e-05
1.45247e-05
1.40494e-05
1.33591e-05
1.29828e-05
1.36127e-05
1.4085e-05
1.43196e-05
1.44363e-05
1.44363e-05
1.43197e-05
1.4085e-05
1.36127e-05
1.29826e-05
1.26541e-05
1.29935e-05
1.33679e-05
1.36118e-05
1.37292e-05
1.37293e-05
1.36119e-05
1.33679e-05
1.29935e-05
1.26541e-05
1.2775e-05
1.29004e-05
1.32394e-05
1.34857e-05
1.36063e-05
1.36069e-05
1.34885e-05
1.32481e-05
1.291e-05
1.2773e-05
1.29112e-05
1.34891e-05
1.39333e-05
1.42037e-05
1.43343e-05
1.43363e-05
1.42145e-05
1.39687e-05
1.34887e-05
1.28992e-05
1.32485e-05
1.39686e-05
1.44275e-05
1.46774e-05
1.48041e-05
1.48065e-05
1.4686e-05
1.44279e-05
1.39335e-05
1.32391e-05
1.34886e-05
1.42143e-05
1.46857e-05
1.49614e-05
1.5092e-05
1.50957e-05
1.49617e-05
1.46778e-05
1.4204e-05
1.34855e-05
1.36069e-05
1.43363e-05
1.48065e-05
1.50956e-05
1.52504e-05
1.52505e-05
1.50914e-05
1.48038e-05
1.43341e-05
1.36061e-05
1.36064e-05
1.43345e-05
1.48044e-05
1.50924e-05
1.52509e-05
1.52509e-05
1.50915e-05
1.48038e-05
1.4334e-05
1.3606e-05
1.34857e-05
1.42041e-05
1.4678e-05
1.49621e-05
1.5097e-05
1.50969e-05
1.49619e-05
1.46779e-05
1.4204e-05
1.34854e-05
1.32391e-05
1.39335e-05
1.44279e-05
1.46862e-05
1.48073e-05
1.48073e-05
1.46862e-05
1.44278e-05
1.39334e-05
1.32389e-05
1.28991e-05
1.34886e-05
1.39686e-05
1.42144e-05
1.43367e-05
1.43367e-05
1.42144e-05
1.39686e-05
1.34885e-05
1.2899e-05
1.27726e-05
1.29098e-05
1.32478e-05
1.34882e-05
1.36067e-05
1.36068e-05
1.34882e-05
1.32478e-05
1.29098e-05
1.27726e-05
1.3083e-05
1.28672e-05
1.3139e-05
1.33732e-05
1.34925e-05
1.3493e-05
1.33759e-05
1.31474e-05
1.28763e-05
1.30796e-05
1.2878e-05
1.33771e-05
1.38221e-05
1.4101e-05
1.42366e-05
1.42387e-05
1.41117e-05
1.38566e-05
1.33762e-05
1.28654e-05
1.31482e-05
1.3857e-05
1.43326e-05
1.45958e-05
1.47287e-05
1.47312e-05
1.46042e-05
1.43327e-05
1.38218e-05
1.31383e-05
1.33763e-05
1.41118e-05
1.46042e-05
1.48941e-05
1.50318e-05
1.50354e-05
1.48942e-05
1.45959e-05
1.4101e-05
1.33729e-05
1.34932e-05
1.42388e-05
1.47313e-05
1.50354e-05
1.51978e-05
1.51978e-05
1.50311e-05
1.47283e-05
1.42363e-05
1.34921e-05
1.34925e-05
1.42369e-05
1.47291e-05
1.50321e-05
1.51982e-05
1.51981e-05
1.50312e-05
1.47283e-05
1.42363e-05
1.34921e-05
1.33731e-05
1.41012e-05
1.45961e-05
1.48947e-05
1.50367e-05
1.50367e-05
1.48945e-05
1.4596e-05
1.4101e-05
1.33728e-05
1.31384e-05
1.38219e-05
1.43327e-05
1.46044e-05
1.47321e-05
1.47321e-05
1.46044e-05
1.43327e-05
1.38218e-05
1.31382e-05
1.28654e-05
1.33762e-05
1.38565e-05
1.41117e-05
1.42391e-05
1.42391e-05
1.41117e-05
1.38565e-05
1.33761e-05
1.28652e-05
1.3079e-05
1.2876e-05
1.31472e-05
1.33757e-05
1.34929e-05
1.34929e-05
1.33757e-05
1.31472e-05
1.2876e-05
1.30789e-05
1.37159e-05
1.29071e-05
1.30657e-05
1.32753e-05
1.33896e-05
1.33901e-05
1.3278e-05
1.30738e-05
1.29157e-05
1.37103e-05
1.2918e-05
1.32813e-05
1.37162e-05
1.40011e-05
1.41411e-05
1.41432e-05
1.40117e-05
1.37498e-05
1.32798e-05
1.29044e-05
1.3075e-05
1.37507e-05
1.42397e-05
1.45152e-05
1.46542e-05
1.46567e-05
1.45235e-05
1.42393e-05
1.37156e-05
1.30646e-05
1.32786e-05
1.40121e-05
1.45237e-05
1.48275e-05
1.49719e-05
1.49755e-05
1.48273e-05
1.4515e-05
1.40009e-05
1.32748e-05
1.33904e-05
1.41435e-05
1.46569e-05
1.49756e-05
1.51453e-05
1.51452e-05
1.49711e-05
1.46536e-05
1.41407e-05
1.33892e-05
1.33897e-05
1.41413e-05
1.46545e-05
1.49722e-05
1.51457e-05
1.51455e-05
1.49711e-05
1.46536e-05
1.41406e-05
1.33892e-05
1.3275e-05
1.40011e-05
1.45153e-05
1.48278e-05
1.49768e-05
1.49767e-05
1.48276e-05
1.45151e-05
1.40009e-05
1.32748e-05
1.30646e-05
1.37156e-05
1.42394e-05
1.45237e-05
1.46575e-05
1.46575e-05
1.45236e-05
1.42393e-05
1.37155e-05
1.30645e-05
1.29044e-05
1.32798e-05
1.37497e-05
1.40117e-05
1.41437e-05
1.41437e-05
1.40118e-05
1.37497e-05
1.32797e-05
1.29042e-05
1.37096e-05
1.29152e-05
1.30735e-05
1.32778e-05
1.339e-05
1.339e-05
1.32778e-05
1.30736e-05
1.29152e-05
1.37091e-05
1.48522e-05
1.30587e-05
1.30309e-05
1.31972e-05
1.3301e-05
1.33016e-05
1.31999e-05
1.30388e-05
1.30669e-05
1.48432e-05
1.30701e-05
1.32074e-05
1.36171e-05
1.39045e-05
1.40479e-05
1.405e-05
1.39149e-05
1.36497e-05
1.32053e-05
1.30549e-05
1.30404e-05
1.3651e-05
1.41488e-05
1.44357e-05
1.45805e-05
1.45829e-05
1.44437e-05
1.4148e-05
1.3616e-05
1.30293e-05
1.32006e-05
1.39157e-05
1.44443e-05
1.47613e-05
1.49125e-05
1.49159e-05
1.47609e-05
1.44352e-05
1.39041e-05
1.31965e-05
1.33019e-05
1.40504e-05
1.45833e-05
1.49162e-05
1.5093e-05
1.50928e-05
1.49114e-05
1.45797e-05
1.40474e-05
1.33006e-05
1.33012e-05
1.40482e-05
1.45807e-05
1.49127e-05
1.50933e-05
1.50931e-05
1.49115e-05
1.45798e-05
1.40474e-05
1.33006e-05
1.31968e-05
1.39043e-05
1.44355e-05
1.47614e-05
1.49172e-05
1.49171e-05
1.47612e-05
1.44353e-05
1.39041e-05
1.31965e-05
1.30295e-05
1.36161e-05
1.41481e-05
1.4444e-05
1.45838e-05
1.45838e-05
1.44439e-05
1.4148e-05
1.3616e-05
1.30293e-05
1.30549e-05
1.32054e-05
1.36497e-05
1.3915e-05
1.40506e-05
1.40506e-05
1.3915e-05
1.36497e-05
1.32053e-05
1.30546e-05
1.48413e-05
1.3066e-05
1.30385e-05
1.31996e-05
1.33015e-05
1.33015e-05
1.31996e-05
1.30385e-05
1.30661e-05
1.48409e-05
1.69015e-05
1.33799e-05
1.30523e-05
1.31474e-05
1.32329e-05
1.32334e-05
1.31499e-05
1.306e-05
1.33877e-05
1.68936e-05
1.33923e-05
1.31655e-05
1.35268e-05
1.38118e-05
1.39575e-05
1.39596e-05
1.3822e-05
1.35585e-05
1.31629e-05
1.33748e-05
1.30619e-05
1.35603e-05
1.40604e-05
1.43574e-05
1.45077e-05
1.45101e-05
1.43651e-05
1.40591e-05
1.35253e-05
1.30501e-05
1.31509e-05
1.38231e-05
1.4366e-05
1.46958e-05
1.48534e-05
1.48567e-05
1.4695e-05
1.43566e-05
1.38111e-05
1.31464e-05
1.32338e-05
1.39601e-05
1.45105e-05
1.48571e-05
1.50408e-05
1.50405e-05
1.48521e-05
1.45067e-05
1.39568e-05
1.32323e-05
1.32329e-05
1.39577e-05
1.45078e-05
1.48535e-05
1.5041e-05
1.50407e-05
1.48522e-05
1.45067e-05
1.39568e-05
1.32323e-05
1.31467e-05
1.38114e-05
1.43569e-05
1.46956e-05
1.4858e-05
1.48579e-05
1.46953e-05
1.43566e-05
1.38111e-05
1.31463e-05
1.30502e-05
1.35255e-05
1.40592e-05
1.43654e-05
1.45109e-05
1.45109e-05
1.43653e-05
1.40591e-05
1.35253e-05
1.305e-05
1.33746e-05
1.3163e-05
1.35585e-05
1.38222e-05
1.39602e-05
1.39602e-05
1.38222e-05
1.35585e-05
1.31628e-05
1.33743e-05
1.68903e-05
1.33866e-05
1.30595e-05
1.31496e-05
1.32333e-05
1.32333e-05
1.31496e-05
1.30594e-05
1.33867e-05
1.6891e-05
2.02966e-05
1.39764e-05
1.31597e-05
1.31379e-05
1.31931e-05
1.31936e-05
1.31404e-05
1.31672e-05
1.39841e-05
2.02818e-05
1.39911e-05
1.31693e-05
1.34485e-05
1.3724e-05
1.38702e-05
1.38723e-05
1.3734e-05
1.34794e-05
1.31662e-05
1.39695e-05
1.31698e-05
1.34816e-05
1.39747e-05
1.42803e-05
1.44357e-05
1.4438e-05
1.42877e-05
1.3973e-05
1.34467e-05
1.31566e-05
1.31415e-05
1.37354e-05
1.4289e-05
1.46308e-05
1.47947e-05
1.47979e-05
1.46298e-05
1.42792e-05
1.37231e-05
1.31364e-05
1.3194e-05
1.3873e-05
1.44386e-05
1.47984e-05
1.49888e-05
1.49884e-05
1.47932e-05
1.44345e-05
1.38695e-05
1.31922e-05
1.31929e-05
1.38704e-05
1.44358e-05
1.47947e-05
1.49889e-05
1.49886e-05
1.47932e-05
1.44345e-05
1.38695e-05
1.31922e-05
1.31368e-05
1.37234e-05
1.42795e-05
1.46304e-05
1.47991e-05
1.4799e-05
1.463e-05
1.42792e-05
1.37232e-05
1.31364e-05
1.31568e-05
1.34468e-05
1.39731e-05
1.4288e-05
1.44389e-05
1.44389e-05
1.4288e-05
1.3973e-05
1.34467e-05
1.31565e-05
1.3969e-05
1.31662e-05
1.34795e-05
1.37343e-05
1.3873e-05
1.3873e-05
1.37343e-05
1.34794e-05
1.31661e-05
1.39683e-05
2.02773e-05
1.39824e-05
1.31663e-05
1.31399e-05
1.31933e-05
1.31933e-05
1.31399e-05
1.31662e-05
1.39824e-05
2.0277e-05
2.53022e-05
1.50054e-05
1.33916e-05
1.31879e-05
1.31943e-05
1.31947e-05
1.31902e-05
1.33989e-05
1.50137e-05
2.52779e-05
1.50233e-05
1.32427e-05
1.3388e-05
1.36431e-05
1.37873e-05
1.37893e-05
1.36529e-05
1.34179e-05
1.32388e-05
1.49966e-05
1.34024e-05
1.34207e-05
1.38927e-05
1.42047e-05
1.43648e-05
1.4367e-05
1.42118e-05
1.38905e-05
1.33856e-05
1.33875e-05
1.31916e-05
1.36545e-05
1.42133e-05
1.45664e-05
1.47364e-05
1.47395e-05
1.45651e-05
1.42032e-05
1.36418e-05
1.31858e-05
1.31951e-05
1.379e-05
1.43676e-05
1.474e-05
1.4937e-05
1.49364e-05
1.47346e-05
1.43632e-05
1.37862e-05
1.3193e-05
1.31939e-05
1.37873e-05
1.43646e-05
1.47362e-05
1.4937e-05
1.49366e-05
1.47347e-05
1.43633e-05
1.37862e-05
1.3193e-05
1.31863e-05
1.36421e-05
1.42035e-05
1.45657e-05
1.47406e-05
1.47405e-05
1.45654e-05
1.42032e-05
1.36419e-05
1.31858e-05
1.3388e-05
1.33856e-05
1.38906e-05
1.4212e-05
1.43678e-05
1.43678e-05
1.4212e-05
1.38906e-05
1.33856e-05
1.33873e-05
1.49969e-05
1.32387e-05
1.34179e-05
1.3653e-05
1.37899e-05
1.37899e-05
1.3653e-05
1.3418e-05
1.32386e-05
1.49948e-05
2.52767e-05
1.50126e-05
1.3398e-05
1.31895e-05
1.31942e-05
1.31942e-05
1.31894e-05
1.33976e-05
1.50112e-05
2.5271e-05
3.19927e-05
1.66206e-05
1.38139e-05
1.33248e-05
1.32567e-05
1.32572e-05
1.33273e-05
1.3822e-05
1.6632e-05
3.19633e-05
1.66452e-05
1.34094e-05
1.33513e-05
1.35713e-05
1.37098e-05
1.37118e-05
1.35808e-05
1.33806e-05
1.34046e-05
1.66111e-05
1.38268e-05
1.33838e-05
1.38154e-05
1.41306e-05
1.42947e-05
1.42969e-05
1.41374e-05
1.38128e-05
1.33484e-05
1.38095e-05
1.33291e-05
1.35826e-05
1.41392e-05
1.45027e-05
1.46784e-05
1.46814e-05
1.45011e-05
1.41288e-05
1.35696e-05
1.33224e-05
1.32576e-05
1.37125e-05
1.42976e-05
1.46821e-05
1.48853e-05
1.48847e-05
1.46765e-05
1.4293e-05
1.37085e-05
1.32551e-05
1.32562e-05
1.37096e-05
1.42944e-05
1.46782e-05
1.48852e-05
1.48847e-05
1.46765e-05
1.4293e-05
1.37085e-05
1.32551e-05
1.33231e-05
1.35699e-05
1.41291e-05
1.45017e-05
1.46825e-05
1.46823e-05
1.45013e-05
1.41288e-05
1.35697e-05
1.33224e-05
1.38102e-05
1.33485e-05
1.38128e-05
1.41376e-05
1.42976e-05
1.42976e-05
1.41376e-05
1.38128e-05
1.33484e-05
1.38092e-05
1.66118e-05
1.34045e-05
1.33805e-05
1.35809e-05
1.37123e-05
1.37123e-05
1.35809e-05
1.33805e-05
1.34042e-05
1.66088e-05
3.19632e-05
1.66311e-05
1.38209e-05
1.33264e-05
1.32564e-05
1.32564e-05
1.33262e-05
1.38203e-05
1.6629e-05
3.19559e-05
4.01748e-05
1.93688e-05
1.45327e-05
1.35912e-05
1.34049e-05
1.34053e-05
1.35938e-05
1.45415e-05
1.93821e-05
4.01342e-05
1.94004e-05
1.37261e-05
1.33503e-05
1.35128e-05
1.36403e-05
1.36423e-05
1.35221e-05
1.33791e-05
1.37204e-05
1.93572e-05
1.45478e-05
1.33827e-05
1.37445e-05
1.40586e-05
1.42259e-05
1.4228e-05
1.40651e-05
1.37415e-05
1.33467e-05
1.45278e-05
1.3596e-05
1.35241e-05
1.40672e-05
1.44396e-05
1.4621e-05
1.46238e-05
1.44378e-05
1.40564e-05
1.35107e-05
1.35886e-05
1.34058e-05
1.3643e-05
1.42287e-05
1.46245e-05
1.48339e-05
1.48331e-05
1.46187e-05
1.42238e-05
1.36386e-05
1.34031e-05
1.34042e-05
1.364e-05
1.42254e-05
1.46205e-05
1.48336e-05
1.48331e-05
1.46187e-05
1.42238e-05
1.36386e-05
1.34031e-05
1.35892e-05
1.35111e-05
1.40568e-05
1.44383e-05
1.46247e-05
1.46246e-05
1.44379e-05
1.40563e-05
1.35107e-05
1.35886e-05
1.45283e-05
1.33469e-05
1.37416e-05
1.40652e-05
1.42285e-05
1.42285e-05
1.40652e-05
1.37415e-05
1.33467e-05
1.45276e-05
1.93575e-05
1.37204e-05
1.33789e-05
1.3522e-05
1.36425e-05
1.36425e-05
1.3522e-05
1.33788e-05
1.37199e-05
1.93549e-05
4.01346e-05
1.93821e-05
1.45407e-05
1.3593e-05
1.34045e-05
1.34044e-05
1.35925e-05
1.45396e-05
1.93789e-05
4.01275e-05
4.94142e-05
2.34811e-05
1.56714e-05
1.40507e-05
1.36848e-05
1.36853e-05
1.40536e-05
1.56811e-05
2.34923e-05
4.9364e-05
2.35206e-05
1.42648e-05
1.33987e-05
1.34728e-05
1.3582e-05
1.35839e-05
1.3482e-05
1.34275e-05
1.42578e-05
2.34646e-05
1.56907e-05
1.34316e-05
1.36825e-05
1.3989e-05
1.41584e-05
1.41604e-05
1.39953e-05
1.36792e-05
1.33947e-05
1.56659e-05
1.4057e-05
1.34841e-05
1.39975e-05
1.43773e-05
1.45639e-05
1.45666e-05
1.43752e-05
1.39865e-05
1.34703e-05
1.4048e-05
1.36863e-05
1.35845e-05
1.41612e-05
1.45674e-05
1.47826e-05
1.47818e-05
1.45614e-05
1.4156e-05
1.35799e-05