/*--------------------------------*- C++ -*----------------------------------*\
| =========                 |                                                 |
| \\      /  F ield         | OpenFOAM: The Open Source CFD Toolbox           |
|  \\    /   O peration     | Version:  2406                                  |
|   \\  /    A nd           | Website:  www.openfoam.com                      |
|    \\/     M anipulation  |                                                 |
\*---------------------------------------------------------------------------*/
FoamFile
{
    version     2.0;
    format      ascii;
    arch        "LSB;label=32;scalar=64";
    class       volScalarField;
    location    "100";
    object      turbulenceProperties:epsilon;
}
// * * * * * * * * * * * * * * * * * * * * * * * * * * * * * * * * * * * * * //

dimensions      [0 2 -3 0 0 0 0];

internalField   nonuniform List<scalar> 
25000
(
1.05895e-06
9.83408e-07
8.313e-07
7.99456e-07
7.84913e-07
7.85332e-07
7.99741e-07
8.28064e-07
9.865e-07
1.07751e-06
9.88986e-07
9.50478e-07
7.88171e-07
7.07508e-07
6.69633e-07
6.68297e-07
7.02166e-07
7.76464e-07
9.26366e-07
9.80848e-07
8.3723e-07
7.91237e-07
6.76552e-07
6.11609e-07
5.80578e-07
5.7951e-07
6.07757e-07
6.68511e-07
7.75345e-07
8.2357e-07
8.03478e-07
7.09464e-07
6.12361e-07
5.52629e-07
5.23939e-07
5.2333e-07
5.50318e-07
6.07353e-07
7.01235e-07
7.95507e-07
7.87817e-07
6.71955e-07
5.81359e-07
5.24203e-07
4.96881e-07
4.96501e-07
5.22902e-07
5.78639e-07
6.66686e-07
7.81332e-07
7.86938e-07
6.70067e-07
5.80518e-07
5.23667e-07
4.96613e-07
4.96404e-07
5.22922e-07
5.78711e-07
6.66783e-07
7.81676e-07
8.0101e-07
7.04132e-07
6.0881e-07
5.50936e-07
5.2324e-07
5.23145e-07
5.5037e-07
6.07545e-07
7.01555e-07
7.96537e-07
8.28785e-07
7.77825e-07
6.70041e-07
6.08321e-07
5.79243e-07
5.79121e-07
6.07812e-07
6.68872e-07
7.75848e-07
8.25249e-07
9.86429e-07
9.28593e-07
7.77716e-07
7.02366e-07
6.6747e-07
6.67339e-07
7.01981e-07
7.76701e-07
9.26962e-07
9.83331e-07
1.07957e-06
9.83112e-07
8.25177e-07
7.96658e-07
7.82033e-07
7.82119e-07
7.96634e-07
8.2508e-07
9.83293e-07
1.0772e-06
1.964e-06
1.89212e-06
1.67393e-06
1.62744e-06
1.60422e-06
1.60343e-06
1.62958e-06
1.68166e-06
1.92743e-06
2.03927e-06
1.90343e-06
1.73805e-06
1.59644e-06
1.53866e-06
1.50236e-06
1.50226e-06
1.53762e-06
1.59731e-06
1.73181e-06
1.91796e-06
1.68981e-06
1.60921e-06
1.48921e-06
1.43817e-06
1.41272e-06
1.41319e-06
1.43804e-06
1.48345e-06
1.59389e-06
1.67703e-06
1.63821e-06
1.54774e-06
1.4427e-06
1.38612e-06
1.35856e-06
1.35912e-06
1.38559e-06
1.43747e-06
1.53723e-06
1.62681e-06
1.61258e-06
1.51033e-06
1.41715e-06
1.3605e-06
1.33433e-06
1.33422e-06
1.35925e-06
1.41326e-06
1.50156e-06
1.60101e-06
1.61015e-06
1.50825e-06
1.41763e-06
1.36124e-06
1.33515e-06
1.33484e-06
1.35973e-06
1.41362e-06
1.50176e-06
1.60178e-06
1.63584e-06
1.54366e-06
1.44193e-06
1.38855e-06
1.36123e-06
1.3609e-06
1.38684e-06
1.43844e-06
1.53788e-06
1.62925e-06
1.68669e-06
1.59952e-06
1.48816e-06
1.44116e-06
1.4156e-06
1.41515e-06
1.43956e-06
1.48488e-06
1.59492e-06
1.68128e-06
1.92983e-06
1.73755e-06
1.60178e-06
1.54042e-06
1.50373e-06
1.50329e-06
1.53912e-06
1.59906e-06
1.73388e-06
1.92562e-06
2.04736e-06
1.92696e-06
1.68232e-06
1.63033e-06
1.60292e-06
1.6025e-06
1.62875e-06
1.68008e-06
1.92476e-06
2.04123e-06
1.62611e-06
1.48602e-06
1.39272e-06
1.32282e-06
1.28232e-06
1.27764e-06
1.30899e-06
1.38226e-06
1.51483e-06
1.72326e-06
1.498e-06
1.33443e-06
1.27899e-06
1.23935e-06
1.21171e-06
1.21082e-06
1.23682e-06
1.27867e-06
1.32559e-06
1.5078e-06
1.40921e-06
1.29238e-06
1.20542e-06
1.16611e-06
1.14608e-06
1.14753e-06
1.1714e-06
1.20836e-06
1.27656e-06
1.38305e-06
1.3321e-06
1.24806e-06
1.17046e-06
1.12935e-06
1.10754e-06
1.10912e-06
1.13281e-06
1.17148e-06
1.23916e-06
1.31287e-06
1.29042e-06
1.21927e-06
1.15046e-06
1.10945e-06
1.08959e-06
1.08997e-06
1.10958e-06
1.14854e-06
1.21303e-06
1.28168e-06
1.2854e-06
1.21704e-06
1.15185e-06
1.11119e-06
1.09093e-06
1.09073e-06
1.11007e-06
1.1488e-06
1.2129e-06
1.28197e-06
1.31632e-06
1.24234e-06
1.17508e-06
1.13568e-06
1.11163e-06
1.1113e-06
1.13413e-06
1.17221e-06
1.23895e-06
1.31406e-06
1.38842e-06
1.27942e-06
1.21252e-06
1.17499e-06
1.15071e-06
1.15025e-06
1.17344e-06
1.20984e-06
1.27667e-06
1.38597e-06
1.5186e-06
1.3302e-06
1.28443e-06
1.24195e-06
1.21484e-06
1.21431e-06
1.24043e-06
1.28188e-06
1.32799e-06
1.51587e-06
1.73402e-06
1.51785e-06
1.38861e-06
1.31611e-06
1.28337e-06
1.28273e-06
1.31397e-06
1.38571e-06
1.51572e-06
1.72902e-06
9.62515e-07
8.14525e-07
7.86587e-07
7.07909e-07
6.72965e-07
6.69706e-07
6.89528e-07
7.47212e-07
7.90392e-07
9.8837e-07
8.24503e-07
7.03549e-07
6.7082e-07
6.34931e-07
6.18829e-07
6.19301e-07
6.34804e-07
6.67259e-07
6.80981e-07
7.89435e-07
7.97495e-07
6.7969e-07
6.19136e-07
5.89262e-07
5.75268e-07
5.76447e-07
5.95291e-07
6.27168e-07
6.67975e-07
7.53758e-07
7.13148e-07
6.39923e-07
5.91825e-07
5.65297e-07
5.49981e-07
5.50908e-07
5.68394e-07
5.965e-07
6.39236e-07
6.97946e-07
6.78395e-07
6.23459e-07
5.77743e-07
5.51004e-07
5.37135e-07
5.37394e-07
5.51878e-07
5.79058e-07
6.24354e-07
6.78078e-07
6.75196e-07
6.23044e-07
5.78964e-07
5.52049e-07
5.37953e-07
5.38098e-07
5.52353e-07
5.79249e-07
6.24019e-07
6.77659e-07
6.94426e-07
6.38026e-07
5.97426e-07
5.70111e-07
5.53167e-07
5.53165e-07
5.6993e-07
5.97112e-07
6.38316e-07
6.97001e-07
7.50768e-07
6.67225e-07
6.29695e-07
5.98703e-07
5.80432e-07
5.80235e-07
5.97947e-07
6.28522e-07
6.67052e-07
7.53301e-07
7.92358e-07
6.83307e-07
6.7282e-07
6.40764e-07
6.25369e-07
6.24996e-07
6.39584e-07
6.70833e-07
6.82376e-07
7.93282e-07
9.97635e-07
7.96442e-07
7.57386e-07
6.99577e-07
6.78902e-07
6.78386e-07
6.97681e-07
7.54294e-07
7.94137e-07
9.9548e-07
5.98688e-07
4.75963e-07
4.45871e-07
3.81736e-07
3.61655e-07
3.62721e-07
3.75425e-07
4.15305e-07
4.37833e-07
5.72683e-07
4.83741e-07
3.88152e-07
3.56055e-07
3.25749e-07
3.16858e-07
3.18394e-07
3.2893e-07
3.5724e-07
3.72642e-07
4.40283e-07
4.51045e-07
3.6078e-07
3.20055e-07
2.95456e-07
2.83523e-07
2.83494e-07
2.97968e-07
3.2704e-07
3.58623e-07
4.22846e-07
3.83074e-07
3.27158e-07
2.96181e-07
2.75181e-07
2.62186e-07
2.61861e-07
2.74966e-07
2.99008e-07
3.32244e-07
3.82204e-07
3.63379e-07
3.182e-07
2.83858e-07
2.6221e-07
2.50658e-07
2.50492e-07
2.62472e-07
2.85565e-07
3.2205e-07
3.6865e-07
3.64373e-07
3.19185e-07
2.83888e-07
2.61725e-07
2.50455e-07
2.50766e-07
2.62723e-07
2.85641e-07
3.21682e-07
3.67877e-07
3.76735e-07
3.29537e-07
2.98124e-07
2.75128e-07
2.62681e-07
2.62974e-07
2.75967e-07
2.99329e-07
3.31044e-07
3.79982e-07
4.15509e-07
3.55725e-07
3.27514e-07
2.99486e-07
2.85774e-07
2.85917e-07
2.99676e-07
3.27667e-07
3.56856e-07
4.19692e-07
4.36782e-07
3.72215e-07
3.6023e-07
3.32081e-07
3.21943e-07
3.21907e-07
3.31776e-07
3.59304e-07
3.72279e-07
4.39701e-07
5.77495e-07
4.42334e-07
4.22944e-07
3.81685e-07
3.68398e-07
3.68298e-07
3.8084e-07
4.20967e-07
4.4094e-07
5.77923e-07
4.21006e-07
3.23567e-07
2.91269e-07
2.51175e-07
2.43991e-07
2.47971e-07
2.5598e-07
2.81894e-07
2.98868e-07
3.86723e-07
3.29256e-07
2.61755e-07
2.35371e-07
2.15128e-07
2.10921e-07
2.12689e-07
2.20291e-07
2.4302e-07
2.60372e-07
3.03167e-07
2.93191e-07
2.37461e-07
2.1416e-07
1.95651e-07
1.85177e-07
1.84284e-07
1.95e-07
2.18915e-07
2.43526e-07
2.88193e-07
2.50306e-07
2.1458e-07
1.95322e-07
1.77873e-07
1.66566e-07
1.65597e-07
1.75243e-07
1.95174e-07
2.21179e-07
2.5896e-07
2.43278e-07
2.10586e-07
1.84509e-07
1.66166e-07
1.56515e-07
1.56042e-07
1.65573e-07
1.84982e-07
2.13369e-07
2.4894e-07
2.47015e-07
2.12185e-07
1.83884e-07
1.64989e-07
1.55798e-07
1.55948e-07
1.65579e-07
1.85001e-07
2.1319e-07
2.48189e-07
2.55188e-07
2.19974e-07
1.94523e-07
1.74881e-07
1.65382e-07
1.65606e-07
1.7553e-07
1.95331e-07
2.20397e-07
2.56496e-07
2.80592e-07
2.41409e-07
2.18792e-07
1.95117e-07
1.84798e-07
1.84998e-07
1.95425e-07
2.1901e-07
2.41881e-07
2.83558e-07
2.96433e-07
2.59345e-07
2.44212e-07
2.20736e-07
2.13078e-07
2.13166e-07
2.20778e-07
2.43616e-07
2.59099e-07
2.99382e-07
3.85994e-07
3.02015e-07
2.86229e-07
2.57659e-07
2.48457e-07
2.48595e-07
2.57337e-07
2.84854e-07
3.00665e-07
3.87486e-07
3.25871e-07
2.57453e-07
2.32252e-07
2.09768e-07
2.1049e-07
2.16112e-07
2.21912e-07
2.40825e-07
2.55229e-07
3.1046e-07
2.63367e-07
2.20436e-07
2.01628e-07
1.89297e-07
1.87046e-07
1.88647e-07
1.95112e-07
2.14297e-07
2.32567e-07
2.60798e-07
2.33842e-07
2.03012e-07
1.90913e-07
1.76198e-07
1.66157e-07
1.6511e-07
1.73749e-07
1.93721e-07
2.1358e-07
2.45769e-07
2.08766e-07
1.88423e-07
1.75585e-07
1.59666e-07
1.4964e-07
1.48815e-07
1.56368e-07
1.7305e-07
1.9395e-07
2.21843e-07
2.09224e-07
1.86405e-07
1.65333e-07
1.49241e-07
1.41346e-07
1.40881e-07
1.48447e-07
1.64779e-07
1.87102e-07
2.13536e-07
2.14191e-07
1.87745e-07
1.64567e-07
1.48225e-07
1.40702e-07
1.40695e-07
1.48261e-07
1.64714e-07
1.87095e-07
2.13033e-07
2.20314e-07
1.94276e-07
1.73033e-07
1.55985e-07
1.48344e-07
1.48327e-07
1.56066e-07
1.72999e-07
1.93558e-07
2.19781e-07
2.3973e-07
2.12565e-07
1.93395e-07
1.73001e-07
1.64663e-07
1.64763e-07
1.73076e-07
1.93213e-07
2.12154e-07
2.40803e-07
2.53216e-07
2.31294e-07
2.14111e-07
1.93611e-07
1.86913e-07
1.87042e-07
1.93785e-07
2.13692e-07
2.3069e-07
2.5497e-07
3.07876e-07
2.57768e-07
2.43048e-07
2.20472e-07
2.1315e-07
2.13322e-07
2.204e-07
2.41842e-07
2.56169e-07
3.08411e-07
2.89104e-07
2.40293e-07
2.21262e-07
2.08645e-07
2.12577e-07
2.1769e-07
2.22133e-07
2.37209e-07
2.50362e-07
2.87673e-07
2.46492e-07
2.17339e-07
2.04546e-07
1.9647e-07
1.93534e-07
1.94627e-07
2.00796e-07
2.17554e-07
2.34692e-07
2.56542e-07
2.23328e-07
2.05981e-07
1.98652e-07
1.84216e-07
1.73716e-07
1.73143e-07
1.81079e-07
1.98686e-07
2.15182e-07
2.40037e-07
2.08104e-07
1.95906e-07
1.83887e-07
1.67206e-07
1.57803e-07
1.57642e-07
1.64499e-07
1.79609e-07
1.9784e-07
2.19555e-07
2.1126e-07
1.93182e-07
1.73336e-07
1.57726e-07
1.50759e-07
1.50496e-07
1.57169e-07
1.72149e-07
1.91395e-07
2.12337e-07
2.15108e-07
1.93589e-07
1.72837e-07
1.57411e-07
1.50552e-07
1.50395e-07
1.56891e-07
1.72049e-07
1.91616e-07
2.12185e-07
2.19834e-07
1.99487e-07
1.80277e-07
1.64325e-07
1.57357e-07
1.57121e-07
1.63848e-07
1.79494e-07
1.98144e-07
2.18448e-07
2.36144e-07
2.15533e-07
1.98276e-07
1.79738e-07
1.72294e-07
1.72318e-07
1.7969e-07
1.9802e-07
2.1486e-07
2.36094e-07
2.48847e-07
2.33983e-07
2.16247e-07
1.97903e-07
1.91528e-07
1.91749e-07
1.9848e-07
2.16553e-07
2.33734e-07
2.50119e-07
2.83278e-07
2.52821e-07
2.37601e-07
2.18561e-07
2.12243e-07
2.12591e-07
2.19183e-07
2.37466e-07
2.51773e-07
2.83651e-07
2.72284e-07
2.35919e-07
2.22674e-07
2.15969e-07
2.20006e-07
2.23316e-07
2.2717e-07
2.39408e-07
2.50215e-07
2.75317e-07
2.42736e-07
2.21936e-07
2.13659e-07
2.0754e-07
2.03608e-07
2.04671e-07
2.11096e-07
2.258e-07
2.39562e-07
2.55199e-07
2.2561e-07
2.1556e-07
2.08985e-07
1.93868e-07
1.83921e-07
1.8472e-07
1.92656e-07
2.0848e-07
2.21967e-07
2.39902e-07
2.16437e-07
2.07533e-07
1.93824e-07
1.76673e-07
1.6847e-07
1.69557e-07
1.76449e-07
1.90575e-07
2.07057e-07
2.23608e-07
2.19068e-07
2.03309e-07
1.8367e-07
1.68583e-07
1.62527e-07
1.62763e-07
1.69147e-07
1.83403e-07
2.00897e-07
2.17738e-07
2.2045e-07
2.02988e-07
1.84081e-07
1.69401e-07
1.62963e-07
1.62809e-07
1.68762e-07
1.83201e-07
2.01238e-07
2.17986e-07
2.24487e-07
2.08826e-07
1.91195e-07
1.76205e-07
1.6953e-07
1.69148e-07
1.75422e-07
1.90213e-07
2.0778e-07
2.23895e-07
2.38627e-07
2.23129e-07
2.07629e-07
1.90684e-07
1.83752e-07
1.83711e-07
1.90583e-07
2.07482e-07
2.22665e-07
2.38445e-07
2.50154e-07
2.39549e-07
2.23505e-07
2.07389e-07
2.01246e-07
2.01522e-07
2.08261e-07
2.24546e-07
2.39878e-07
2.5108e-07
2.71984e-07
2.52605e-07
2.38556e-07
2.23213e-07
2.1786e-07
2.18387e-07
2.24682e-07
2.40026e-07
2.5311e-07
2.7294e-07
2.61348e-07
2.31172e-07
2.22855e-07
2.19906e-07
2.2238e-07
2.23348e-07
2.27099e-07
2.37822e-07
2.45621e-07
2.62251e-07
2.38178e-07
2.22066e-07
2.1736e-07
2.1222e-07
2.07841e-07
2.08948e-07
2.15566e-07
2.28917e-07
2.38745e-07
2.47986e-07
2.25869e-07
2.19205e-07
2.12275e-07
1.97141e-07
1.88579e-07
1.90693e-07
1.98546e-07
2.12887e-07
2.23848e-07
2.35595e-07
2.20122e-07
2.11985e-07
1.97131e-07
1.80746e-07
1.7404e-07
1.76201e-07
1.83132e-07
1.96242e-07
2.11126e-07
2.23369e-07
2.20645e-07
2.06685e-07
1.88044e-07
1.74151e-07
1.69e-07
1.69721e-07
1.75905e-07
1.8933e-07
2.05313e-07
2.18658e-07
2.19816e-07
2.06096e-07
1.89288e-07
1.75816e-07
1.69874e-07
1.69842e-07
1.75462e-07
1.89067e-07
2.05683e-07
2.19103e-07
2.2383e-07
2.12163e-07
1.96248e-07
1.82516e-07
1.76169e-07
1.75836e-07
1.81879e-07
1.95709e-07
2.12064e-07
2.24647e-07
2.36397e-07
2.25395e-07
2.1154e-07
1.96107e-07
1.89589e-07
1.8959e-07
1.96175e-07
2.11768e-07
2.25307e-07
2.3641e-07
2.46001e-07
2.39239e-07
2.2583e-07
2.11592e-07
2.05654e-07
2.05962e-07
2.12664e-07
2.27372e-07
2.3988e-07
2.46408e-07
2.60118e-07
2.47316e-07
2.35702e-07
2.23482e-07
2.18749e-07
2.19398e-07
2.25527e-07
2.38395e-07
2.49005e-07
2.61271e-07
2.45393e-07
2.20767e-07
2.17769e-07
2.17853e-07
2.19041e-07
2.18461e-07
2.22472e-07
2.32468e-07
2.37118e-07
2.47105e-07
2.25657e-07
2.15941e-07
2.15211e-07
2.11409e-07
2.07188e-07
2.07897e-07
2.14147e-07
2.26645e-07
2.33261e-07
2.35713e-07
2.18514e-07
2.16141e-07
2.1032e-07
1.9635e-07
1.89172e-07
1.91707e-07
1.98815e-07
2.1182e-07
2.20925e-07
2.27177e-07
2.15996e-07
2.09943e-07
1.95916e-07
1.81203e-07
1.75728e-07
1.78243e-07
1.84745e-07
1.96682e-07
2.10028e-07
2.1857e-07
2.15703e-07
2.0439e-07
1.87793e-07
1.75524e-07
1.71128e-07
1.72093e-07
1.77908e-07
1.90279e-07
2.04713e-07
2.14837e-07
2.1444e-07
2.03943e-07
1.89259e-07
1.77255e-07
1.7195e-07
1.72151e-07
1.77511e-07
1.90097e-07
2.05125e-07
2.1539e-07
2.18957e-07
2.10197e-07
1.95895e-07
1.83548e-07
1.77742e-07
1.77679e-07
1.83616e-07
1.96365e-07
2.11212e-07
2.20608e-07
2.30162e-07
2.22691e-07
2.10282e-07
1.96268e-07
1.90213e-07
1.90372e-07
1.96777e-07
2.11093e-07
2.23007e-07
2.30022e-07
2.37183e-07
2.34028e-07
2.23294e-07
2.10604e-07
2.04918e-07
2.05195e-07
2.11669e-07
2.24958e-07
2.34675e-07
2.36735e-07
2.46777e-07
2.37395e-07
2.28867e-07
2.19223e-07
2.14873e-07
2.15421e-07
2.2118e-07
2.31783e-07
2.39363e-07
2.47297e-07
2.29323e-07
2.08534e-07
2.09608e-07
2.11822e-07
2.12394e-07
2.11244e-07
2.15623e-07
2.25327e-07
2.27626e-07
2.34e-07
2.10411e-07
2.083e-07
2.11301e-07
2.08734e-07
2.0439e-07
2.04048e-07
2.09492e-07
2.21511e-07
2.26216e-07
2.22501e-07
2.07406e-07
2.11142e-07
2.0757e-07
1.94936e-07
1.88221e-07
1.90014e-07
1.95818e-07
2.07748e-07
2.1579e-07
2.17352e-07
2.07713e-07
2.06027e-07
1.94014e-07
1.80859e-07
1.75755e-07
1.77687e-07
1.8333e-07
1.94167e-07
2.06212e-07
2.11452e-07
2.07954e-07
2.00422e-07
1.86136e-07
1.7518e-07
1.71025e-07
1.71823e-07
1.77081e-07
1.88383e-07
2.0135e-07
2.08336e-07
2.07576e-07
2.00052e-07
1.87025e-07
1.76132e-07
1.71278e-07
1.71643e-07
1.76785e-07
1.88355e-07
2.01747e-07
2.08899e-07
2.12542e-07
2.06022e-07
1.92978e-07
1.81679e-07
1.76343e-07
1.76603e-07
1.82526e-07
1.94258e-07
2.07472e-07
2.13841e-07
2.22114e-07
2.17492e-07
2.0637e-07
1.93519e-07
1.87824e-07
1.88142e-07
1.94464e-07
2.07623e-07
2.17992e-07
2.21438e-07
2.26287e-07
2.26377e-07
2.18052e-07
2.06642e-07
2.01184e-07
2.01366e-07
2.07519e-07
2.19594e-07
2.27075e-07
2.25242e-07
2.34463e-07
2.25186e-07
2.19735e-07
2.12224e-07
2.08131e-07
2.08396e-07
2.1357e-07
2.22239e-07
2.27209e-07
2.34505e-07
2.20264e-07
1.98553e-07
2.01209e-07
2.03911e-07
2.03686e-07
2.02246e-07
2.0656e-07
2.15919e-07
2.17207e-07
2.26014e-07
1.97057e-07
2.01198e-07
2.06654e-07
2.04445e-07
1.99357e-07
1.97713e-07
2.02118e-07
2.1353e-07
2.17087e-07
2.09413e-07
1.96369e-07
2.05628e-07
2.03999e-07
1.92309e-07
1.85313e-07
1.8581e-07
1.90295e-07
2.01323e-07
2.0856e-07
2.06556e-07
1.98402e-07
2.01191e-07
1.91249e-07
1.79244e-07
1.73914e-07
1.74836e-07
1.79564e-07
1.89492e-07
2.00263e-07
2.02561e-07
1.99349e-07
1.95577e-07
1.8334e-07
1.73257e-07
1.68994e-07
1.69419e-07
1.74088e-07
1.84416e-07
1.95916e-07
1.99833e-07
2.00012e-07
1.95167e-07
1.83465e-07
1.7332e-07
1.68682e-07
1.69077e-07
1.74e-07
1.84597e-07
1.96294e-07
2.00374e-07
2.04868e-07
2.00444e-07
1.88675e-07
1.78187e-07
1.73123e-07
1.73581e-07
1.79422e-07
1.90154e-07
2.01614e-07
2.05047e-07
2.12466e-07
2.10467e-07
2.00878e-07
1.89166e-07
1.8371e-07
1.84041e-07
1.90155e-07
2.02127e-07
2.10865e-07
2.1129e-07
2.1414e-07
2.16912e-07
2.10941e-07
2.00894e-07
1.95701e-07
1.95669e-07
2.01258e-07
2.11996e-07
2.17575e-07
2.1317e-07
2.25957e-07
2.12327e-07
2.09206e-07
2.0352e-07
1.99673e-07
1.99531e-07
2.03833e-07
2.10783e-07
2.14105e-07
2.26031e-07
2.19235e-07
1.91395e-07
1.93761e-07
1.95144e-07
1.93673e-07
1.91998e-07
1.95931e-07
2.04788e-07
2.06889e-07
2.24387e-07
1.88133e-07
1.9668e-07
2.02249e-07
1.98899e-07
1.92943e-07
1.90528e-07
1.94242e-07
2.0497e-07
2.07967e-07
1.98076e-07
1.88204e-07
2.01696e-07
2.00107e-07
1.88468e-07
1.81156e-07
1.80829e-07
1.84623e-07
1.95038e-07
2.01598e-07
1.9637e-07
1.90667e-07
1.96989e-07
1.88043e-07
1.76579e-07
1.70979e-07
1.71219e-07
1.75471e-07
1.84859e-07
1.94489e-07
1.93694e-07
1.91558e-07
1.91243e-07
1.804e-07
1.70707e-07
1.66252e-07
1.66388e-07
1.70667e-07
1.80286e-07
1.9047e-07
1.91241e-07
1.92641e-07
1.90715e-07
1.80219e-07
1.70461e-07
1.65812e-07
1.66106e-07
1.70781e-07
1.80548e-07
1.90684e-07
1.91737e-07
1.96937e-07
1.95181e-07
1.84945e-07
1.75078e-07
1.70014e-07
1.70399e-07
1.76012e-07
1.85785e-07
1.95488e-07
1.96057e-07
2.02738e-07
2.03559e-07
1.95946e-07
1.85319e-07
1.79911e-07
1.80026e-07
1.85743e-07
1.96453e-07
2.03482e-07
2.01284e-07
2.03478e-07
2.07796e-07
2.04163e-07
1.95451e-07
1.90475e-07
1.90128e-07
1.94971e-07
2.0428e-07
2.08173e-07
2.02658e-07
2.24024e-07
2.0073e-07
1.98963e-07
1.94874e-07
1.91365e-07
1.9081e-07
1.94089e-07
1.99488e-07
2.02406e-07
2.24574e-07
2.2786e-07
1.89856e-07
1.89212e-07
1.8762e-07
1.83816e-07
1.81189e-07
1.84225e-07
1.9253e-07
1.97761e-07
2.29118e-07
1.85648e-07
1.94846e-07
1.97784e-07
1.91715e-07
1.84784e-07
1.82194e-07
1.85566e-07
1.9544e-07
1.98144e-07
1.8976e-07
1.84648e-07
1.9866e-07
1.9439e-07
1.81861e-07
1.7459e-07
1.74278e-07
1.78179e-07
1.88193e-07
1.94033e-07
1.86989e-07
1.85576e-07
1.92232e-07
1.82653e-07
1.71255e-07
1.65717e-07
1.65956e-07
1.70327e-07
1.79496e-07
1.88042e-07
1.84711e-07
1.84531e-07
1.86045e-07
1.75789e-07
1.66223e-07
1.61712e-07
1.61817e-07
1.66e-07
1.75179e-07
1.84197e-07
1.82229e-07
1.84648e-07
1.85384e-07
1.76008e-07
1.66519e-07
1.61743e-07
1.61848e-07
1.6629e-07
1.75395e-07
1.84153e-07
1.82564e-07
1.87801e-07
1.89154e-07
1.80732e-07
1.71403e-07
1.66129e-07
1.66213e-07
1.71454e-07
1.80339e-07
1.88392e-07
1.86441e-07
1.92403e-07
1.95991e-07
1.90606e-07
1.81027e-07
1.7553e-07
1.75268e-07
1.80436e-07
1.89905e-07
1.95208e-07
1.91129e-07
1.94811e-07
1.98664e-07
1.97032e-07
1.89517e-07
1.84725e-07
1.84039e-07
1.88077e-07
1.95957e-07
1.98365e-07
1.94203e-07
2.28257e-07
1.92221e-07
1.89431e-07
1.86084e-07
1.82788e-07
1.81928e-07
1.84372e-07
1.88813e-07
1.93277e-07
2.29086e-07
2.30607e-07
1.92513e-07
1.86229e-07
1.80722e-07
1.74405e-07
1.7083e-07
1.73039e-07
1.80985e-07
1.91761e-07
2.27607e-07
1.88538e-07
1.94561e-07
1.92937e-07
1.83758e-07
1.76371e-07
1.74261e-07
1.77633e-07
1.86541e-07
1.89237e-07
1.85739e-07
1.84307e-07
1.95867e-07
1.87463e-07
1.73897e-07
1.67323e-07
1.67859e-07
1.72403e-07
1.82068e-07
1.87136e-07
1.79367e-07
1.82055e-07
1.86822e-07
1.7575e-07
1.64414e-07
1.59572e-07
1.60553e-07
1.65446e-07
1.74491e-07
1.81992e-07
1.7653e-07
1.77777e-07
1.79994e-07
1.69951e-07
1.6066e-07
1.56562e-07
1.57021e-07
1.61339e-07
1.70196e-07
1.78135e-07
1.73786e-07
1.76028e-07
1.79218e-07
1.71112e-07
1.62091e-07
1.57418e-07
1.57461e-07
1.61684e-07
1.70232e-07
1.77788e-07
1.73919e-07
1.78026e-07
1.82541e-07
1.76211e-07
1.6759e-07
1.62241e-07
1.61994e-07
1.66804e-07
1.74885e-07
1.81437e-07
1.77361e-07
1.82598e-07
1.88213e-07
1.85159e-07
1.76696e-07
1.71228e-07
1.70624e-07
1.75215e-07
1.83519e-07
1.87219e-07
1.82103e-07
1.90052e-07
1.90245e-07
1.9005e-07
1.83573e-07
1.7906e-07
1.78177e-07
1.81517e-07
1.88154e-07
1.89474e-07
1.89563e-07
2.27309e-07
1.88081e-07
1.81362e-07
1.77823e-07
1.7466e-07
1.73686e-07
1.75647e-07
1.79867e-07
1.88346e-07
2.27733e-07
1.94657e-07
2.01517e-07
1.85673e-07
1.75303e-07
1.66413e-07
1.61958e-07
1.63666e-07
1.71999e-07
1.90675e-07
1.86162e-07
1.99203e-07
1.9558e-07
1.87805e-07
1.75853e-07
1.6838e-07
1.66941e-07
1.70401e-07
1.78346e-07
1.81536e-07
1.87372e-07
1.87317e-07
1.92437e-07
1.79824e-07
1.6562e-07
1.59942e-07
1.61421e-07
1.66624e-07
1.75865e-07
1.80269e-07
1.74051e-07
1.79152e-07
1.80313e-07
1.67937e-07
1.56876e-07
1.52926e-07
1.54761e-07
1.60111e-07
1.68909e-07
1.75467e-07
1.6912e-07
1.70663e-07
1.72756e-07
1.62967e-07
1.54171e-07
1.50718e-07
1.51614e-07
1.56032e-07
1.64525e-07
1.71511e-07
1.65682e-07
1.6681e-07
1.71787e-07
1.64934e-07
1.56606e-07
1.52269e-07
1.52338e-07
1.56337e-07
1.64393e-07
1.70983e-07
1.656e-07
1.68124e-07
1.74816e-07
1.70364e-07
1.62591e-07
1.57405e-07
1.56949e-07
1.61363e-07
1.68817e-07
1.74206e-07
1.68863e-07
1.74068e-07
1.79843e-07
1.7859e-07
1.71162e-07
1.65939e-07
1.65193e-07
1.69357e-07
1.76799e-07
1.79288e-07
1.74693e-07
1.89782e-07
1.82413e-07
1.82517e-07
1.76714e-07
1.72573e-07
1.71764e-07
1.74756e-07
1.8061e-07
1.81676e-07
1.89556e-07
1.86321e-07
1.89031e-07
1.74977e-07
1.69837e-07
1.66539e-07
1.65766e-07
1.67965e-07
1.73331e-07
1.88718e-07
1.8624e-07
1.08637e-07
2.11527e-07
1.84613e-07
1.69254e-07
1.58788e-07
1.54396e-07
1.56498e-07
1.66333e-07
1.92552e-07
1.01055e-07
2.11619e-07
1.94178e-07
1.80495e-07
1.67186e-07
1.60378e-07
1.59857e-07
1.63555e-07
1.70679e-07
1.75008e-07
1.92023e-07
1.89298e-07
1.85746e-07
1.70918e-07
1.5726e-07
1.52723e-07
1.54979e-07
1.60563e-07
1.6921e-07
1.73019e-07
1.70821e-07
1.7404e-07
1.71545e-07
1.59341e-07
1.49297e-07
1.46383e-07
1.48859e-07
1.54285e-07
1.62528e-07
1.68161e-07
1.62359e-07
1.62379e-07
1.63995e-07
1.55142e-07
1.47341e-07
1.4473e-07
1.45981e-07
1.50263e-07
1.58183e-07
1.64246e-07
1.57993e-07
1.57594e-07
1.63233e-07
1.57626e-07
1.5032e-07
1.46615e-07
1.46809e-07
1.50527e-07
1.58043e-07
1.63795e-07
1.57829e-07
1.59278e-07
1.66268e-07
1.63179e-07
1.56376e-07
1.51711e-07
1.51267e-07
1.55359e-07
1.62299e-07
1.66795e-07
1.6135e-07
1.68009e-07
1.7117e-07
1.70874e-07
1.64336e-07
1.59627e-07
1.59011e-07
1.62925e-07
1.69753e-07
1.71455e-07
1.69497e-07
1.92249e-07
1.75399e-07
1.74412e-07
1.6893e-07
1.65243e-07
1.64735e-07
1.6765e-07
1.7311e-07
1.75008e-07
1.92268e-07
1.01878e-07
1.92821e-07
1.70581e-07
1.62449e-07
1.58711e-07
1.58312e-07
1.61336e-07
1.69234e-07
1.92032e-07
1.02067e-07
5.06153e-07
2.11612e-07
1.82155e-07
1.62515e-07
1.51889e-07
1.4875e-07
1.52388e-07
1.64917e-07
1.89496e-07
5.25213e-07
2.14812e-07
1.90025e-07
1.7172e-07
1.58527e-07
1.52868e-07
1.53388e-07
1.57544e-07
1.64273e-07
1.70628e-07
1.91178e-07
1.88581e-07
1.7662e-07
1.62008e-07
1.49845e-07
1.46371e-07
1.48998e-07
1.54585e-07
1.6257e-07
1.66021e-07
1.69983e-07
1.66652e-07
1.61744e-07
1.51247e-07
1.42782e-07
1.40732e-07
1.43324e-07
1.48325e-07
1.55789e-07
1.60666e-07
1.56933e-07
1.53872e-07
1.54926e-07
1.47648e-07
1.41171e-07
1.393e-07
1.40564e-07
1.44386e-07
1.51582e-07
1.56891e-07
1.51441e-07
1.49802e-07
1.5475e-07
1.50227e-07
1.44017e-07
1.4099e-07
1.41263e-07
1.4462e-07
1.51582e-07
1.56686e-07
1.51294e-07
1.52982e-07
1.58013e-07
1.55545e-07
1.49581e-07
1.45588e-07
1.45321e-07
1.49199e-07
1.5575e-07
1.59631e-07
1.55539e-07
1.65465e-07
1.63088e-07
1.62785e-07
1.56818e-07
1.52726e-07
1.52449e-07
1.56332e-07
1.62788e-07
1.64192e-07
1.6705e-07
1.89235e-07
1.69867e-07
1.66335e-07
1.60779e-07
1.5752e-07
1.57461e-07
1.60566e-07
1.66092e-07
1.70109e-07
1.89283e-07
5.25922e-07
1.90423e-07
1.68377e-07
1.56258e-07
1.51742e-07
1.51792e-07
1.56181e-07
1.6785e-07
1.89786e-07
5.29256e-07
4.86526e-06
1.82238e-07
1.78531e-07
1.55961e-07
1.45882e-07
1.44722e-07
1.50711e-07
1.65871e-07
1.61503e-07
4.97736e-06
1.87273e-07
1.83067e-07
1.61889e-07
1.49856e-07
1.45436e-07
1.4689e-07
1.51514e-07
1.58237e-07
1.67116e-07
1.64735e-07
1.84625e-07
1.65621e-07
1.53153e-07
1.43137e-07
1.40478e-07
1.43015e-07
1.4823e-07
1.55441e-07
1.58717e-07
1.69758e-07
1.58448e-07
1.51624e-07
1.43866e-07
1.3728e-07
1.35749e-07
1.37877e-07
1.42031e-07
1.48562e-07
1.52756e-07
1.52724e-07
1.46289e-07
1.46201e-07
1.40876e-07
1.35797e-07
1.34345e-07
1.35205e-07
1.3828e-07
1.44654e-07
1.49321e-07
1.4607e-07
1.43994e-07
1.46848e-07
1.43246e-07
1.38001e-07
1.35458e-07
1.35627e-07
1.38541e-07
1.44902e-07
1.4944e-07
1.45976e-07
1.49228e-07
1.50319e-07
1.47991e-07
1.4263e-07
1.39206e-07
1.39143e-07
1.42823e-07
1.48974e-07
1.52386e-07
1.51287e-07
1.6486e-07
1.55627e-07
1.54632e-07
1.49007e-07
1.45465e-07
1.45552e-07
1.49423e-07
1.55571e-07
1.57118e-07
1.65909e-07
1.60808e-07
1.65374e-07
1.58438e-07
1.52541e-07
1.49631e-07
1.4993e-07
1.53216e-07
1.59066e-07
1.66076e-07
1.60958e-07
4.97195e-06
1.62267e-07
1.6721e-07
1.51589e-07
1.46012e-07
1.46407e-07
1.52353e-07
1.67516e-07
1.62007e-07
4.98495e-06
2.62816e-05
1.18297e-07
1.7094e-07
1.50358e-07
1.41343e-07
1.42336e-07
1.50782e-07
1.64669e-07
1.0904e-07
2.65912e-05
1.2466e-07
1.75274e-07
1.53225e-07
1.42502e-07
1.39212e-07
1.41379e-07
1.4638e-07
1.53589e-07
1.64409e-07
1.13021e-07
1.76074e-07
1.5606e-07
1.45964e-07
1.38156e-07
1.36004e-07
1.38111e-07
1.42696e-07
1.49125e-07
1.52757e-07
1.66702e-07
1.5184e-07
1.43502e-07
1.38517e-07
1.33602e-07
1.32115e-07
1.33347e-07
1.3647e-07
1.42125e-07
1.45934e-07
1.50271e-07
1.41397e-07
1.39702e-07
1.3613e-07
1.32059e-07
1.3052e-07
1.30586e-07
1.32803e-07
1.38448e-07
1.42738e-07
1.42752e-07
1.41192e-07
1.41092e-07
1.38104e-07
1.33336e-07
1.3083e-07
1.30634e-07
1.33028e-07
1.38827e-07
1.43001e-07
1.42639e-07
1.48384e-07
1.44596e-07
1.42004e-07
1.3688e-07
1.33645e-07
1.33593e-07
1.3701e-07
1.42732e-07
1.45879e-07
1.48875e-07
1.62832e-07
1.50272e-07
1.47933e-07
1.42378e-07
1.39096e-07
1.3933e-07
1.43082e-07
1.48879e-07
1.51184e-07
1.62573e-07
1.08917e-07
1.6217e-07
1.52364e-07
1.45656e-07
1.42805e-07
1.4321e-07
1.46563e-07
1.53109e-07
1.6266e-07
1.08406e-07
2.65708e-05
1.09504e-07
1.63751e-07
1.48977e-07
1.42379e-07
1.4288e-07
1.50064e-07
1.64552e-07
1.09631e-07
2.65876e-05
9.6419e-05
2.30919e-07
1.5221e-07
1.45676e-07
1.38132e-07
1.40409e-07
1.49538e-07
1.50515e-07
2.47531e-07
9.68368e-05
2.40386e-07
1.64608e-07
1.46334e-07
1.36102e-07
1.33441e-07
1.35905e-07
1.41094e-07
1.49303e-07
1.58006e-07
2.51854e-07
1.55876e-07
1.48459e-07
1.3955e-07
1.33518e-07
1.31544e-07
1.33015e-07
1.36961e-07
1.42775e-07
1.47469e-07
1.51241e-07
1.46436e-07
1.36949e-07
1.34009e-07
1.30239e-07
1.28311e-07
1.28476e-07
1.30741e-07
1.35786e-07
1.39586e-07
1.47448e-07
1.38513e-07
1.34579e-07
1.32233e-07
1.28575e-07
1.26407e-07
1.25514e-07
1.27063e-07
1.32256e-07
1.36483e-07
1.40261e-07
1.39825e-07
1.36405e-07
1.33702e-07
1.28923e-07
1.25955e-07
1.25201e-07
1.27193e-07
1.326e-07
1.36673e-07
1.39926e-07
1.47288e-07
1.39786e-07
1.36714e-07
1.3146e-07
1.27986e-07
1.2774e-07
1.30877e-07
1.36219e-07
1.39455e-07
1.45765e-07
1.48701e-07
1.46234e-07
1.4192e-07
1.36185e-07
1.32812e-07
1.32945e-07
1.36454e-07
1.41991e-07
1.45824e-07
1.46872e-07
2.47522e-07
1.5626e-07
1.47652e-07
1.39536e-07
1.36386e-07
1.36612e-07
1.39974e-07
1.47658e-07
1.55751e-07
2.46143e-07
9.68067e-05
2.49466e-07
1.4878e-07
1.4638e-07
1.39672e-07
1.39966e-07
1.46924e-07
1.48931e-07
2.48254e-07
9.67757e-05
0.000264969
1.64557e-06
1.13031e-07
1.36803e-07
1.3421e-07
1.37086e-07
1.42599e-07
1.16328e-07
1.71464e-06
0.000264932
1.66859e-06
1.45705e-07
1.42373e-07
1.31822e-07
1.29336e-07
1.3171e-07
1.36922e-07
1.46357e-07
1.43086e-07
1.71604e-06
1.1608e-07
1.44358e-07
1.35249e-07
1.30227e-07
1.28196e-07
1.29004e-07
1.32349e-07
1.37752e-07
1.44205e-07
1.17304e-07
1.3784e-07
1.33006e-07
1.30979e-07
1.27723e-07
1.25123e-07
1.24357e-07
1.26043e-07
1.30717e-07
1.35008e-07
1.4054e-07
1.35593e-07
1.313e-07
1.29465e-07
1.2571e-07
1.22689e-07
1.20967e-07
1.22153e-07
1.27146e-07
1.31654e-07
1.37267e-07
1.37562e-07
1.3297e-07
1.30248e-07
1.25159e-07
1.21539e-07
1.2028e-07
1.2204e-07
1.27233e-07
1.31557e-07
1.36622e-07
1.41057e-07
1.36071e-07
1.32365e-07
1.26877e-07
1.23041e-07
1.22519e-07
1.2543e-07
1.30511e-07
1.34355e-07
1.38435e-07
1.15087e-07
1.43548e-07
1.37048e-07
1.3104e-07
1.27455e-07
1.27374e-07
1.30673e-07
1.36146e-07
1.42265e-07
1.12897e-07
1.70844e-06
1.41707e-07
1.4466e-07
1.34864e-07
1.312e-07
1.31207e-07
1.34747e-07
1.44052e-07
1.40775e-07
1.70889e-06
0.000264835
1.71814e-06
1.15472e-07
1.39577e-07
1.36351e-07
1.36331e-07
1.39402e-07
1.14771e-07
1.71617e-06
0.000264791
0.000582478
8.38935e-06
1.04478e-07
1.1927e-07
1.26129e-07
1.28289e-07
1.23602e-07
1.10971e-07
8.49527e-06
0.000579943
8.45055e-06
1.15383e-07
1.40895e-07
1.29679e-07
1.26489e-07
1.28141e-07
1.33053e-07
1.43147e-07
1.15127e-07
8.48295e-06
1.07268e-07
1.42538e-07
1.32451e-07
1.27302e-07
1.24698e-07
1.2471e-07
1.27564e-07
1.32857e-07
1.40846e-07
1.12941e-07
1.19889e-07
1.30651e-07
1.28087e-07
1.24548e-07
1.21039e-07
1.19571e-07
1.21077e-07
1.25613e-07
1.30712e-07
1.22002e-07
1.27293e-07
1.2833e-07
1.26012e-07
1.21704e-07
1.17781e-07
1.15594e-07
1.16852e-07
1.21874e-07
1.26869e-07
1.27738e-07
1.28451e-07
1.29094e-07
1.25811e-07
1.20292e-07
1.1607e-07
1.14573e-07
1.16446e-07
1.21622e-07
1.26457e-07
1.26764e-07
1.2171e-07
1.31894e-07
1.27231e-07
1.21495e-07
1.17365e-07
1.16733e-07
1.19606e-07
1.24618e-07
1.29568e-07
1.19332e-07
1.09273e-07
1.40187e-07
1.31859e-07
1.25421e-07
1.21671e-07
1.21487e-07
1.24749e-07
1.30601e-07
1.38847e-07
1.08394e-07
8.47336e-06
1.13944e-07
1.4125e-07
1.30239e-07
1.26016e-07
1.25946e-07
1.29989e-07
1.40664e-07
1.13222e-07
8.47288e-06
0.000579825
8.5058e-06
1.11817e-07
1.20856e-07
1.26536e-07
1.2639e-07
1.20418e-07
1.10395e-07
8.49519e-06
0.00057965
0.00107417
3.04624e-05
4.29457e-07
9.68814e-08
1.08554e-07
1.09641e-07
9.91362e-08
4.425e-07
3.05182e-05
0.00106763
3.06209e-05
9.38846e-08
1.39023e-07
1.2895e-07
1.24881e-07
1.25648e-07
1.30081e-07
1.38688e-07
9.7453e-08
3.04707e-05
4.35978e-07
1.40425e-07
1.31278e-07
1.25199e-07
1.21898e-07
1.21208e-07
1.23621e-07
1.29056e-07
1.36268e-07
4.4349e-07
9.73388e-08
1.29516e-07
1.25689e-07
1.2147e-07
1.17217e-07
1.15406e-07
1.16915e-07
1.21284e-07
1.27122e-07
9.75518e-08
1.09251e-07
1.25924e-07
1.22512e-07
1.17564e-07
1.13057e-07
1.10831e-07