/*--------------------------------*- C++ -*----------------------------------*\
| =========                 |                                                 |
| \\      /  F ield         | OpenFOAM: The Open Source CFD Toolbox           |
|  \\    /   O peration     | Version:  2406                                  |
|   \\  /    A nd           | Website:  www.openfoam.com                      |
|    \\/     M anipulation  |                                                 |
\*---------------------------------------------------------------------------*/
FoamFile
{
    version     2.0;
    format      ascii;
    arch        "LSB;label=32;scalar=64";
    class       volSymmTensorField;
    location    "100";
    object      turbulenceProperties:devReff;
}
// * * * * * * * * * * * * * * * * * * * * * * * * * * * * * * * * * * * * * //

dimensions      [0 2 -2 0 0 0 0];

internalField   nonuniform List<symmTensor> 
25000
(
(3.80435e-06 -4.32479e-06 -1.60665e-06 4.01473e-06 -1.63214e-06 -7.81908e-06)
(6.31681e-06 1.96627e-06 -1.13519e-06 2.24952e-06 -1.43918e-06 -8.56633e-06)
(4.9309e-06 1.26158e-06 -8.02996e-07 3.31612e-06 -1.46631e-06 -8.24702e-06)
(4.43759e-06 7.72764e-07 -4.85631e-07 3.77889e-06 -1.46727e-06 -8.21648e-06)
(4.18697e-06 2.87732e-07 -1.69822e-07 4.00662e-06 -1.46503e-06 -8.19359e-06)
(4.15854e-06 -2.17723e-07 1.4494e-07 4.04012e-06 -1.46441e-06 -8.19866e-06)
(4.34457e-06 -6.79701e-07 4.58866e-07 3.88886e-06 -1.46311e-06 -8.23343e-06)
(4.76243e-06 -1.11171e-06 7.77886e-07 3.51959e-06 -1.45817e-06 -8.28202e-06)
(6.16852e-06 -1.85259e-06 1.11156e-06 2.51019e-06 -1.41906e-06 -8.67871e-06)
(4.12811e-06 4.02619e-06 1.59694e-06 4.11991e-06 -1.60308e-06 -8.24802e-06)
(2.18789e-06 1.90343e-06 -1.41301e-06 6.40446e-06 -1.15054e-06 -8.59235e-06)
(4.3454e-06 1.49375e-06 -1.10729e-06 4.46648e-06 -1.12842e-06 -8.81188e-06)
(3.98571e-06 9.99859e-07 -8.27337e-07 4.14831e-06 -1.14108e-06 -8.13402e-06)
(3.84251e-06 5.89756e-07 -5.06763e-07 3.93559e-06 -1.15361e-06 -7.7781e-06)
(3.77841e-06 2.24964e-07 -1.76887e-07 3.82684e-06 -1.15987e-06 -7.60525e-06)
(3.77465e-06 -1.22537e-07 1.55015e-07 3.8267e-06 -1.15827e-06 -7.60135e-06)
(3.83387e-06 -4.6675e-07 4.86225e-07 3.92778e-06 -1.14709e-06 -7.76165e-06)
(3.97918e-06 -8.33152e-07 8.11083e-07 4.1207e-06 -1.12757e-06 -8.09987e-06)
(4.39171e-06 -1.27011e-06 1.0976e-06 4.35494e-06 -1.10683e-06 -8.74666e-06)
(2.51696e-06 -1.84792e-06 1.41312e-06 6.13992e-06 -1.12146e-06 -8.65688e-06)
(3.3517e-06 1.1488e-06 -1.45421e-06 4.95057e-06 -8.07875e-07 -8.30228e-06)
(4.1065e-06 9.50882e-07 -1.1236e-06 4.05032e-06 -8.40263e-07 -8.15682e-06)
(3.77644e-06 6.653e-07 -8.30696e-07 3.82995e-06 -8.45804e-07 -7.60639e-06)
(3.61582e-06 4.11374e-07 -5.09765e-07 3.66695e-06 -8.47271e-07 -7.28277e-06)
(3.54428e-06 1.62236e-07 -1.76745e-07 3.58129e-06 -8.47489e-07 -7.12557e-06)
(3.54846e-06 -7.95871e-08 1.60046e-07 3.57324e-06 -8.45023e-07 -7.12171e-06)
(3.62936e-06 -3.21106e-07 4.95586e-07 3.63869e-06 -8.39684e-07 -7.26806e-06)
(3.80279e-06 -5.62912e-07 8.2094e-07 3.77223e-06 -8.32267e-07 -7.57503e-06)
(4.15225e-06 -8.38918e-07 1.11799e-06 3.9417e-06 -8.22412e-07 -8.09395e-06)
(3.52561e-06 -1.10994e-06 1.45161e-06 4.73484e-06 -7.90187e-07 -8.26045e-06)
(3.8232e-06 7.18779e-07 -1.46002e-06 4.42243e-06 -4.86331e-07 -8.24564e-06)
(3.92556e-06 5.4167e-07 -1.14104e-06 3.86861e-06 -5.13316e-07 -7.79417e-06)
(3.63954e-06 3.93864e-07 -8.33989e-07 3.64961e-06 -5.19849e-07 -7.28916e-06)
(3.47012e-06 2.50602e-07 -5.09535e-07 3.49611e-06 -5.20654e-07 -6.96623e-06)
(3.39351e-06 1.03433e-07 -1.74975e-07 3.41476e-06 -5.19515e-07 -6.80827e-06)
(3.39968e-06 -4.30473e-08 1.63506e-07 3.40606e-06 -5.17112e-07 -6.80573e-06)
(3.48639e-06 -1.89125e-07 5.00544e-07 3.46945e-06 -5.13504e-07 -6.95584e-06)
(3.66272e-06 -3.29992e-07 8.28299e-07 3.60289e-06 -5.08803e-07 -7.26561e-06)
(3.9584e-06 -4.81475e-07 1.13768e-06 3.79729e-06 -4.99943e-07 -7.75569e-06)
(3.90433e-06 -6.84151e-07 1.45625e-06 4.30835e-06 -4.73087e-07 -8.21268e-06)
(4.04355e-06 2.58556e-07 -1.46208e-06 4.16665e-06 -1.69655e-07 -8.2102e-06)
(3.83677e-06 1.90375e-07 -1.15068e-06 3.7837e-06 -1.80119e-07 -7.62046e-06)
(3.56993e-06 1.42016e-07 -8.36288e-07 3.5622e-06 -1.8308e-07 -7.13213e-06)
(3.39844e-06 9.56233e-08 -5.09283e-07 3.41228e-06 -1.82999e-07 -6.81073e-06)
(3.31964e-06 4.65805e-08 -1.73221e-07 3.33368e-06 -1.81684e-07 -6.65332e-06)
(3.32492e-06 -3.35049e-09 1.66253e-07 3.32638e-06 -1.79622e-07 -6.6513e-06)
(3.41273e-06 -5.3798e-08 5.03919e-07 3.39095e-06 -1.77293e-07 -6.80368e-06)
(3.5897e-06 -1.01785e-07 8.33184e-07 3.52745e-06 -1.74767e-07 -7.11715e-06)
(3.85565e-06 -1.5243e-07 1.14846e-06 3.73693e-06 -1.70845e-07 -7.59258e-06)
(4.07569e-06 -2.33901e-07 1.45681e-06 4.10327e-06 -1.61003e-07 -8.17896e-06)
(4.06241e-06 -2.30808e-07 -1.46203e-06 4.14467e-06 1.45453e-07 -8.20708e-06)
(3.83885e-06 -1.46623e-07 -1.15189e-06 3.77285e-06 1.53365e-07 -7.6117e-06)
(3.573e-06 -9.75062e-08 -8.36193e-07 3.55583e-06 1.5599e-07 -7.12882e-06)
(3.39807e-06 -5.25875e-08 -5.07942e-07 3.41081e-06 1.57743e-07 -6.80889e-06)
(3.31711e-06 -6.95238e-09 -1.71575e-07 3.33541e-06 1.59752e-07 -6.65252e-06)
(3.32154e-06 3.75087e-08 1.67897e-07 3.32951e-06 1.61149e-07 -6.65105e-06)
(3.40918e-06 8.14494e-08 5.05253e-07 3.39461e-06 1.61815e-07 -6.80378e-06)
(3.5866e-06 1.22911e-07 8.3422e-07 3.53078e-06 1.61656e-07 -7.11738e-06)
(3.85294e-06 1.67986e-07 1.14917e-06 3.73995e-06 1.59456e-07 -7.59289e-06)
(4.07563e-06 2.47484e-07 1.45709e-06 4.10473e-06 1.50743e-07 -8.18036e-06)
(3.90428e-06 -6.89422e-07 -1.46272e-06 4.33531e-06 4.59432e-07 -8.23959e-06)
(3.94249e-06 -4.83104e-07 -1.14215e-06 3.82942e-06 4.8523e-07 -7.77191e-06)
(3.64221e-06 -3.34735e-07 -8.32413e-07 3.6326e-06 4.93057e-07 -7.27481e-06)
(3.46626e-06 -1.98287e-07 -5.05684e-07 3.49416e-06 4.96692e-07 -6.96041e-06)
(3.3855e-06 -5.87135e-08 -1.69839e-07 3.4209e-06 4.99218e-07 -6.8064e-06)
(3.38866e-06 7.9558e-08 1.68318e-07 3.41677e-06 5.00129e-07 -6.80543e-06)
(3.47506e-06 2.17286e-07 5.04549e-07 3.48089e-06 4.99252e-07 -6.95596e-06)
(3.65229e-06 3.50712e-07 8.31288e-07 3.61381e-06 4.96578e-07 -7.2661e-06)
(3.95037e-06 4.96434e-07 1.1397e-06 3.80638e-06 4.89194e-07 -7.75675e-06)
(3.90398e-06 6.97556e-07 1.45706e-06 4.31295e-06 4.63207e-07 -8.21692e-06)
(3.52831e-06 -1.11535e-06 -1.45754e-06 4.7578e-06 7.7836e-07 -8.28611e-06)
(4.13151e-06 -8.44067e-07 -1.1235e-06 3.97547e-06 8.10743e-07 -8.10697e-06)
(3.77797e-06 -5.73186e-07 -8.26226e-07 3.80563e-06 8.19732e-07 -7.5836e-06)
(3.60232e-06 -3.37633e-07 -5.01949e-07 3.66931e-06 8.26421e-07 -7.27163e-06)
(3.52376e-06 -1.06969e-07 -1.68065e-07 3.59751e-06 8.30417e-07 -7.12127e-06)
(3.52631e-06 1.19745e-07 1.67838e-07 3.59385e-06 8.31044e-07 -7.12016e-06)
(3.60864e-06 3.49001e-07 5.01792e-07 3.65908e-06 8.27673e-07 -7.26772e-06)
(3.78507e-06 5.82742e-07 8.25601e-07 3.79075e-06 8.21809e-07 -7.57583e-06)
(4.13825e-06 8.52152e-07 1.12116e-06 3.95731e-06 8.12938e-07 -8.09556e-06)
(3.52395e-06 1.12254e-06 1.45284e-06 4.74343e-06 7.81166e-07 -8.26738e-06)
(2.51722e-06 -1.85038e-06 -1.41819e-06 6.16413e-06 1.11182e-06 -8.68135e-06)
(4.36636e-06 -1.27503e-06 -1.10319e-06 4.39039e-06 1.09817e-06 -8.75675e-06)
(3.94853e-06 -8.46314e-07 -8.17214e-07 4.15654e-06 1.11866e-06 -8.10507e-06)
(3.79784e-06 -4.88175e-07 -4.93812e-07 3.96404e-06 1.13741e-06 -7.76188e-06)
(3.73464e-06 -1.57659e-07 -1.64755e-07 3.86248e-06 1.14775e-06 -7.59712e-06)
(3.73656e-06 1.63667e-07 1.65107e-07 3.85959e-06 1.14794e-06 -7.59616e-06)
(3.80243e-06 4.93348e-07 4.94091e-07 3.95672e-06 1.13802e-06 -7.75914e-06)
(3.95411e-06 8.50527e-07 8.17046e-07 4.14499e-06 1.11942e-06 -8.0991e-06)
(4.37204e-06 1.28109e-06 1.10162e-06 4.3759e-06 1.09923e-06 -8.74795e-06)
(2.51227e-06 1.85674e-06 1.41469e-06 6.15303e-06 1.11393e-06 -8.6653e-06)
(4.12356e-06 4.03578e-06 -1.6001e-06 4.1302e-06 1.5964e-06 -8.25376e-06)
(6.14674e-06 -1.85016e-06 -1.11737e-06 2.52069e-06 1.4138e-06 -8.66743e-06)
(4.73904e-06 -1.11635e-06 -7.84908e-07 3.52937e-06 1.4521e-06 -8.26842e-06)
(4.30937e-06 -6.90278e-07 -4.67385e-07 3.90911e-06 1.45682e-06 -8.21848e-06)
(4.10294e-06 -2.39282e-07 -1.55387e-07 4.07961e-06 1.45726e-06 -8.18255e-06)
(4.10341e-06 2.42782e-07 1.55958e-07 4.0793e-06 1.45744e-06 -8.18271e-06)
(4.31106e-06 6.92816e-07 4.67776e-07 3.90667e-06 1.45712e-06 -8.21773e-06)
(4.74117e-06 1.11764e-06 7.84793e-07 3.52601e-06 1.45254e-06 -8.26718e-06)
(6.15263e-06 1.85353e-06 1.11654e-06 2.51277e-06 1.41405e-06 -8.6654e-06)
(4.12403e-06 -4.03045e-06 1.59895e-06 4.11951e-06 1.59778e-06 -8.24355e-06)
(5.54849e-06 -3.86755e-06 3.30395e-06 5.82633e-06 3.30215e-06 -1.13748e-05)
(8.42346e-06 1.91336e-06 2.36601e-06 3.37036e-06 3.06717e-06 -1.17938e-05)
(6.76526e-06 6.04002e-07 1.6806e-06 4.91698e-06 2.76641e-06 -1.16822e-05)
(6.36571e-06 5.22539e-07 1.01607e-06 5.30925e-06 2.63379e-06 -1.1675e-05)
(6.18296e-06 2.02606e-07 3.58487e-07 5.49516e-06 2.55522e-06 -1.16781e-05)
(6.15268e-06 -1.56838e-07 -3.01265e-07 5.52879e-06 2.54819e-06 -1.16815e-05)
(6.29037e-06 -4.59991e-07 -9.59811e-07 5.4153e-06 2.61171e-06 -1.17057e-05)
(6.63417e-06 -5.04491e-07 -1.62268e-06 5.12809e-06 2.72592e-06 -1.17623e-05)
(8.41266e-06 -1.88054e-06 -2.29236e-06 3.60576e-06 3.00735e-06 -1.20184e-05)
(5.9369e-06 3.67494e-06 -3.252e-06 5.93071e-06 3.24738e-06 -1.18676e-05)
(3.32019e-06 1.80207e-06 3.05418e-06 8.52526e-06 2.36114e-06 -1.18454e-05)
(5.92141e-06 1.18815e-06 2.22243e-06 6.02386e-06 2.21914e-06 -1.19453e-05)
(5.79098e-06 5.7211e-07 1.51944e-06 5.83544e-06 2.07494e-06 -1.16264e-05)
(5.93034e-06 3.05309e-07 9.05484e-07 5.58105e-06 1.97267e-06 -1.15114e-05)
(5.94799e-06 1.20237e-07 3.09894e-07 5.47475e-06 1.91084e-06 -1.14227e-05)
(5.94434e-06 -2.9848e-08 -2.78128e-07 5.48213e-06 1.90112e-06 -1.14265e-05)
(5.92934e-06 -1.78918e-07 -8.72536e-07 5.59143e-06 1.94253e-06 -1.15208e-05)
(5.80467e-06 -4.13699e-07 -1.48005e-06 5.84733e-06 2.02989e-06 -1.1652e-05)
(6.01176e-06 -1.00494e-06 -2.16607e-06 5.95971e-06 2.16074e-06 -1.19715e-05)
(3.61786e-06 -1.87691e-06 -3.00898e-06 8.37449e-06 2.28618e-06 -1.19924e-05)
(4.97103e-06 4.72361e-07 2.75752e-06 6.79032e-06 1.66969e-06 -1.17613e-05)
(5.81301e-06 5.08164e-07 2.0787e-06 5.86314e-06 1.51192e-06 -1.16761e-05)
(5.64109e-06 4.63086e-07 1.42292e-06 5.7008e-06 1.4138e-06 -1.13419e-05)
(5.70688e-06 2.95119e-07 8.3857e-07 5.52067e-06 1.34291e-06 -1.12276e-05)
(5.72208e-06 1.25759e-07 2.81461e-07 5.44516e-06 1.30399e-06 -1.11672e-05)
(5.73073e-06 -2.97555e-08 -2.6605e-07 5.44038e-06 1.2986e-06 -1.11711e-05)
(5.73443e-06 -1.87904e-07 -8.20245e-07 5.49901e-06 1.32717e-06 -1.12334e-05)
(5.68596e-06 -3.51808e-07 -1.39219e-06 5.64755e-06 1.38922e-06 -1.13335e-05)
(5.88679e-06 -4.1953e-07 -2.03331e-06 5.75525e-06 1.47682e-06 -1.1642e-05)
(5.14126e-06 -5.08191e-07 -2.72819e-06 6.60379e-06 1.62221e-06 -1.17451e-05)
(5.37649e-06 4.57569e-07 2.63042e-06 6.34977e-06 1.00358e-06 -1.17263e-05)
(5.58659e-06 2.40752e-07 1.97511e-06 5.96182e-06 8.96183e-07 -1.15484e-05)
(5.49121e-06 2.65614e-07 1.35119e-06 5.75386e-06 8.28829e-07 -1.12451e-05)
(5.52432e-06 1.91344e-07 7.92251e-07 5.56213e-06 7.82299e-07 -1.10865e-05)
(5.54124e-06 9.2194e-08 2.6378e-07 5.46631e-06 7.58208e-07 -1.10075e-05)
(5.55356e-06 -9.20109e-09 -2.53893e-07 5.45679e-06 7.56606e-07 -1.10103e-05)
(5.55532e-06 -1.12279e-07 -7.78959e-07 5.53202e-06 7.77679e-07 -1.10873e-05)
(5.53111e-06 -1.95465e-07 -1.32928e-06 5.70049e-06 8.19789e-07 -1.12316e-05)
(5.63366e-06 -1.89732e-07 -1.94563e-06 5.88534e-06 8.75354e-07 -1.1519e-05)
(5.44121e-06 -4.6597e-07 -2.61292e-06 6.2536e-06 9.66991e-07 -1.16948e-05)
(5.5587e-06 1.6808e-07 2.55553e-06 6.15488e-06 3.46152e-07 -1.17136e-05)
(5.50233e-06 7.38743e-08 1.91459e-06 5.95177e-06 3.00357e-07 -1.14541e-05)
(5.43567e-06 9.2861e-08 1.31218e-06 5.74818e-06 2.72172e-07 -1.11839e-05)
(5.44191e-06 7.81274e-08 7.68065e-07 5.57246e-06 2.54194e-07 -1.10144e-05)
(5.45444e-06 4.94257e-08 2.55611e-07 5.47959e-06 2.45864e-07 -1.0934e-05)
(5.46449e-06 1.5365e-08 -2.46444e-07 5.46949e-06 2.45713e-07 -1.0934e-05)
(5.46746e-06 -2.17129e-08 -7.56919e-07 5.54365e-06 2.53402e-07 -1.10111e-05)
(5.46623e-06 -5.09457e-08 -1.2977e-06 5.70551e-06 2.68101e-07 -1.11717e-05)
(5.52395e-06 -4.99173e-08 -1.89933e-06 5.90083e-06 2.86661e-07 -1.14248e-05)
(5.57639e-06 -1.65978e-07 -2.547e-06 6.09687e-06 3.19e-07 -1.16733e-05)
(5.5778e-06 -1.7741e-07 2.55038e-06 6.12973e-06 -3.1128e-07 -1.17075e-05)
(5.50918e-06 -6.26652e-08 1.90612e-06 5.9395e-06 -2.86314e-07 -1.14487e-05)
(5.44474e-06 -5.84981e-08 1.30658e-06 5.74223e-06 -2.74091e-07 -1.1187e-05)
(5.44394e-06 -2.61098e-08 7.66081e-07 5.57382e-06 -2.62263e-07 -1.10178e-05)
(5.45101e-06 8.65841e-09 2.55333e-07 5.48612e-06 -2.5509e-07 -1.09371e-05)
(5.45863e-06 3.73429e-08 -2.46297e-07 5.47745e-06 -2.55051e-07 -1.09361e-05)
(5.4611e-06 6.46875e-08 -7.56647e-07 5.55138e-06 -2.62618e-07 -1.10125e-05)
(5.46063e-06 8.3406e-08 -1.29748e-06 5.71194e-06 -2.77016e-07 -1.11726e-05)
(5.51869e-06 7.24496e-08 -1.89923e-06 5.90633e-06 -2.95206e-07 -1.1425e-05)
(5.57676e-06 1.80132e-07 -2.54772e-06 6.09871e-06 -3.27543e-07 -1.16755e-05)
(5.45916e-06 -4.7773e-07 2.61483e-06 6.26988e-06 -9.67747e-07 -1.1729e-05)
(5.62162e-06 -2.01771e-07 1.94814e-06 5.9206e-06 -8.7942e-07 -1.15422e-05)
(5.50648e-06 -2.08885e-07 1.33505e-06 5.74051e-06 -8.26689e-07 -1.1247e-05)
(5.52547e-06 -1.27999e-07 7.86908e-07 5.57191e-06 -7.85697e-07 -1.10974e-05)
(5.5307e-06 -3.06452e-08 2.62802e-07 5.48709e-06 -7.63913e-07 -1.10178e-05)
(5.53504e-06 6.10511e-08 -2.53993e-07 5.48155e-06 -7.63856e-07 -1.10166e-05)
(5.53617e-06 1.52655e-07 -7.78765e-07 5.55475e-06 -7.86003e-07 -1.10909e-05)
(5.51336e-06 2.25195e-07 -1.32883e-06 5.72035e-06 -8.28533e-07 -1.12337e-05)
(5.61829e-06 2.09957e-07 -1.94545e-06 5.90166e-06 -8.84174e-07 -1.15199e-05)
(5.44227e-06 4.80201e-07 -2.61504e-06 6.25962e-06 -9.76144e-07 -1.17019e-05)
(5.16449e-06 -5.11208e-07 2.7303e-06 6.61721e-06 -1.62949e-06 -1.17817e-05)
(5.86747e-06 -4.27416e-07 2.03475e-06 5.79448e-06 -1.48451e-06 -1.16619e-05)
(5.65734e-06 -3.66411e-07 1.39748e-06 5.69208e-06 -1.39735e-06 -1.13494e-05)
(5.6976e-06 -2.07509e-07 8.28993e-07 5.54624e-06 -1.33432e-06 -1.12438e-05)
(5.69458e-06 -5.97612e-08 2.7727e-07 5.48546e-06 -1.30261e-06 -1.118e-05)
(5.69722e-06 7.79643e-08 -2.68552e-07 5.48115e-06 -1.30253e-06 -1.11784e-05)
(5.70242e-06 2.22269e-07 -8.21419e-07 5.53541e-06 -1.3342e-06 -1.12378e-05)
(5.65772e-06 3.76919e-07 -1.39246e-06 5.67898e-06 -1.39785e-06 -1.13367e-05)
(5.86154e-06 4.35554e-07 -2.03357e-06 5.78222e-06 -1.48619e-06 -1.16438e-05)
(5.14208e-06 5.22517e-07 -2.73168e-06 6.61561e-06 -1.63231e-06 -1.17577e-05)
(3.64023e-06 -1.87825e-06 3.01235e-06 8.39401e-06 -2.29803e-06 -1.20342e-05)
(5.98345e-06 -1.00895e-06 2.16844e-06 6.00592e-06 -2.17129e-06 -1.19894e-05)
(5.76895e-06 -4.28143e-07 1.48699e-06 5.89606e-06 -2.03933e-06 -1.1665e-05)
(5.88395e-06 -1.98338e-07 8.8482e-07 5.6453e-06 -1.94926e-06 -1.15292e-05)
(5.89226e-06 -5.6778e-08 2.95822e-07 5.54024e-06 -1.90241e-06 -1.14325e-05)
(5.89344e-06 6.6545e-08 -2.8683e-07 5.5376e-06 -1.90209e-06 -1.1431e-05)
(5.88537e-06 2.05774e-07 -8.77094e-07 5.63958e-06 -1.94842e-06 -1.15249e-05)
(5.76699e-06 4.33455e-07 -1.48196e-06 5.88838e-06 -2.03824e-06 -1.16554e-05)
(5.97685e-06 1.01857e-06 -2.16701e-06 5.99836e-06 -2.17026e-06 -1.19752e-05)
(3.615e-06 1.89325e-06 -3.01307e-06 8.39621e-06 -2.29659e-06 -1.20112e-05)
(5.95338e-06 3.67336e-06 3.25556e-06 5.9422e-06 -3.26018e-06 -1.18956e-05)
(8.38487e-06 -1.88457e-06 2.29634e-06 3.63398e-06 -3.01709e-06 -1.20188e-05)
(6.60528e-06 -5.16228e-07 1.63254e-06 5.15684e-06 -2.73402e-06 -1.17621e-05)
(6.24921e-06 -4.71889e-07 9.77335e-07 5.45723e-06 -2.61687e-06 -1.17064e-05)
(6.09003e-06 -1.70596e-07 3.28743e-07 5.58983e-06 -2.5495e-06 -1.16799e-05)
(6.08972e-06 1.7579e-07 -3.18862e-07 5.58889e-06 -2.54902e-06 -1.16786e-05)
(6.24859e-06 4.74543e-07 -9.68728e-07 5.45281e-06 -2.61549e-06 -1.17014e-05)
(6.60218e-06 5.15719e-07 -1.62655e-06 5.153e-06 -2.73165e-06 -1.17552e-05)
(8.38338e-06 1.88796e-06 -2.29363e-06 3.6274e-06 -3.01391e-06 -1.20108e-05)
(5.93356e-06 -3.66477e-06 -3.25488e-06 5.94241e-06 -3.25567e-06 -1.1876e-05)
(4.84983e-06 -1.19689e-06 4.50698e-06 4.96654e-06 4.51285e-06 -9.81637e-06)
(6.29386e-06 1.15572e-06 3.24197e-06 3.53252e-06 4.10179e-06 -9.82638e-06)
(5.25591e-06 5.70609e-08 2.33143e-06 4.75609e-06 3.9103e-06 -1.0012e-05)
(5.05781e-06 2.70507e-07 1.42522e-06 4.87418e-06 3.82053e-06 -9.93199e-06)
(4.92769e-06 6.32744e-08 5.08977e-07 4.96442e-06 3.74827e-06 -9.89211e-06)
(4.90501e-06 -6.85054e-08 -4.13492e-07 4.97308e-06 3.74199e-06 -9.87808e-06)
(4.99308e-06 -2.44482e-07 -1.32157e-06 4.90312e-06 3.79942e-06 -9.8962e-06)
(5.16861e-06 4.13957e-08 -2.23875e-06 4.84392e-06 3.87555e-06 -1.00125e-05)
(6.36183e-06 -1.10309e-06 -3.17373e-06 3.67513e-06 4.06908e-06 -1.0037e-05)
(5.17049e-06 1.03228e-06 -4.51827e-06 5.13649e-06 4.51144e-06 -1.0307e-05)
(3.55677e-06 1.04569e-06 4.09054e-06 6.34973e-06 3.24106e-06 -9.9065e-06)
(4.84056e-06 7.34012e-07 3.12118e-06 4.89599e-06 3.12086e-06 -9.73654e-06)
(4.84593e-06 2.24905e-07 2.25067e-06 5.00019e-06 3.02866e-06 -9.84612e-06)
(5.0396e-06 6.43432e-08 1.36698e-06 4.858e-06 2.96291e-06 -9.8976e-06)
(5.03864e-06 -1.02521e-09 4.75603e-07 4.8534e-06 2.91639e-06 -9.89203e-06)
(5.03182e-06 3.62403e-09 -4.1085e-07 4.86548e-06 2.90438e-06 -9.8973e-06)
(5.03549e-06 -8.02664e-09 -1.29754e-06 4.88198e-06 2.92083e-06 -9.91747e-06)
(4.87193e-06 -5.19101e-08 -2.17693e-06 5.02589e-06 2.95764e-06 -9.89782e-06)
(4.93155e-06 -4.89427e-07 -3.04358e-06 4.86094e-06 3.0362e-06 -9.79249e-06)
(3.71193e-06 -1.09679e-06 -4.07228e-06 6.30553e-06 3.16554e-06 -1.00175e-05)
(4.83419e-06 -5.14762e-08 3.90384e-06 5.26501e-06 2.32311e-06 -1.00992e-05)
(5.00821e-06 1.58549e-07 3.03193e-06 4.90029e-06 2.24811e-06 -9.90851e-06)
(4.87452e-06 2.3327e-07 2.17148e-06 4.91957e-06 2.16664e-06 -9.79408e-06)
(4.98533e-06 1.42445e-07 1.31323e-06 4.84666e-06 2.10431e-06 -9.83199e-06)
(4.99516e-06 6.27653e-08 4.50585e-07 4.85524e-06 2.07e-06 -9.8504e-06)
(5.00085e-06 -1.32826e-09 -4.10836e-07 4.86278e-06 2.06107e-06 -9.86364e-06)
(5.01909e-06 -5.83631e-08 -1.27243e-06 4.85799e-06 2.07577e-06 -9.87708e-06)
(4.94474e-06 -1.20843e-07 -2.11747e-06 4.9037e-06 2.11569e-06 -9.84844e-06)
(5.076e-06 -5.50786e-08 -2.96109e-06 4.81772e-06 2.17428e-06 -9.89372e-06)
(4.87873e-06 3.63266e-08 -3.87961e-06 5.13591e-06 2.24185e-06 -1.00146e-05)
(4.94899e-06 2.27809e-07 3.82267e-06 5.03331e-06 1.4116e-06 -9.98231e-06)
(4.88313e-06 3.62265e-09 2.96525e-06 5.05912e-06 1.3583e-06 -9.94225e-06)
(4.82752e-06 1.12541e-07 2.10951e-06 5.02585e-06 1.30623e-06 -9.85338e-06)
(4.90971e-06 9.76229e-08 1.27156e-06 4.94334e-06 1.2648e-06 -9.85305e-06)
(4.93503e-06 6.37402e-08 4.32187e-07 4.91468e-06 1.24146e-06 -9.84971e-06)
(4.94914e-06 2.71374e-08 -4.06174e-07 4.91109e-06 1.23623e-06 -9.86023e-06)
(4.95455e-06 -9.60492e-09 -1.24471e-06 4.92552e-06 1.24857e-06 -9.88007e-06)
(4.89531e-06 -5.76367e-08 -2.07619e-06 4.98252e-06 1.27761e-06 -9.87784e-06)
(4.93287e-06 -4.52127e-09 -2.92461e-06 4.99389e-06 1.30795e-06 -9.92676e-06)
(4.94474e-06 -2.44472e-07 -3.8024e-06 4.96651e-06 1.33846e-06 -9.91125e-06)
(5.03047e-06 4.22377e-08 3.75511e-06 4.90007e-06 4.952e-07 -9.93053e-06)
(4.8914e-06 -4.1101e-08 2.92171e-06 5.03753e-06 4.6558e-07 -9.92893e-06)
(4.85253e-06 3.07519e-08 2.07666e-06 5.01878e-06 4.42488e-07 -9.8713e-06)
(4.89182e-06 4.95802e-08 1.2488e-06 4.96622e-06 4.24928e-07 -9.85804e-06)
(4.91356e-06 4.7844e-08 4.22329e-07 4.94064e-06 4.15073e-07 -9.8542e-06)
(4.9276e-06 3.58664e-08 -4.04324e-07 4.93008e-06 4.11703e-07 -9.85768e-06)
(4.9302e-06 1.91785e-08 -1.23094e-06 4.93366e-06 4.14864e-07 -9.86386e-06)
(4.90004e-06 -3.40587e-09 -2.0572e-06 4.96975e-06 4.24269e-07 -9.86978e-06)
(4.91467e-06 1.77168e-08 -2.90168e-06 4.99428e-06 4.33556e-07 -9.90895e-06)
(5.01882e-06 -5.99125e-08 -3.74245e-06 4.87767e-06 4.47084e-07 -9.89649e-06)
(5.02672e-06 -8.23908e-08 3.75115e-06 4.88494e-06 -4.23925e-07 -9.91166e-06)
(4.89846e-06 -2.58455e-08 2.91181e-06 5.02691e-06 -4.18978e-07 -9.92537e-06)
(4.86997e-06 -3.07338e-08 2.06852e-06 5.01304e-06 -4.17945e-07 -9.88301e-06)
(4.8978e-06 8.98547e-09 1.24374e-06 4.97175e-06 -4.12661e-07 -9.86955e-06)
(4.90879e-06 2.84112e-08 4.19029e-07 4.95294e-06 -4.10726e-07 -9.86173e-06)
(4.91874e-06 3.39089e-08 -4.06353e-07 4.9427e-06 -4.12745e-07 -9.86144e-06)
(4.92181e-06 3.86721e-08 -1.23171e-06 4.94408e-06 -4.18763e-07 -9.86589e-06)
(4.89292e-06 4.87702e-08 -2.05739e-06 4.97766e-06 -4.29123e-07 -9.87058e-06)
(4.90701e-06 1.47315e-08 -2.90149e-06 5.00109e-06 -4.37975e-07 -9.9081e-06)
(5.01739e-06 7.52144e-08 -3.74318e-06 4.87985e-06 -4.50833e-07 -9.89724e-06)
(4.95289e-06 -2.5871e-07 3.80985e-06 4.97296e-06 -1.32924e-06 -9.92585e-06)
(4.91494e-06 -2.97707e-08 2.92896e-06 5.0265e-06 -1.30393e-06 -9.94144e-06)
(4.86724e-06 -8.04307e-08 2.08356e-06 5.02604e-06 -1.27775e-06 -9.89327e-06)
(4.91807e-06 -2.65746e-08 1.25648e-06 4.97404e-06 -1.24991e-06 -9.89212e-06)
(4.9172e-06 9.00487e-09 4.22296e-07 4.95506e-06 -1.23595e-06 -9.87225e-06)
(4.92238e-06 3.44652e-08 -4.1242e-07 4.9486e-06 -1.23685e-06 -9.87098e-06)
(4.92972e-06 5.97765e-08 -1.24781e-06 4.95559e-06 -1.25279e-06 -9.88531e-06)
(4.87329e-06 9.70972e-08 -2.07665e-06 5.00653e-06 -1.28328e-06 -9.87982e-06)
(4.91115e-06 3.24405e-08 -2.92398e-06 5.01365e-06 -1.31356e-06 -9.92481e-06)
(4.94075e-06 2.5991e-07 -3.80462e-06 4.97378e-06 -1.34383e-06 -9.91453e-06)
(4.88873e-06 3.26965e-08 3.88626e-06 5.1478e-06 -2.24451e-06 -1.00365e-05)
(5.04799e-06 -6.4512e-08 2.96316e-06 4.85842e-06 -2.17914e-06 -9.90641e-06)
(4.91494e-06 -1.34972e-07 2.12432e-06 4.95071e-06 -2.12161e-06 -9.86566e-06)
(4.97884e-06 -6.99663e-08 1.28605e-06 4.9131e-06 -2.07993e-06 -9.89193e-06)
(4.95506e-06 -1.25745e-08 4.31741e-07 4.92437e-06 -2.06031e-06 -9.87942e-06)
(4.95691e-06 4.26308e-08 -4.22874e-07 4.92055e-06 -2.0606e-06 -9.87745e-06)
(4.9811e-06 9.38169e-08 -1.27849e-06 4.90397e-06 -2.0804e-06 -9.88507e-06)
(4.91102e-06 1.50723e-07 -2.1194e-06 4.94171e-06 -2.12297e-06 -9.85273e-06)
(5.04057e-06 7.58522e-08 -2.9609e-06 4.85174e-06 -2.18233e-06 -9.8923e-06)
(4.87183e-06 -1.89695e-08 -3.88348e-06 5.15228e-06 -2.25037e-06 -1.00241e-05)
(3.71939e-06 -1.10833e-06 4.07852e-06 6.33783e-06 -3.17796e-06 -1.00572e-05)
(4.88917e-06 -4.91777e-07 3.04601e-06 4.92117e-06 -3.04799e-06 -9.81034e-06)
(4.83473e-06 -6.03929e-08 2.18642e-06 5.0842e-06 -2.96794e-06 -9.91892e-06)
(4.99158e-06 -1.04817e-08 1.31685e-06 4.94607e-06 -2.92685e-06 -9.93765e-06)
(4.98166e-06 1.23051e-08 4.41029e-07 4.93548e-06 -2.90321e-06 -9.91714e-06)
(4.98158e-06 9.50759e-09 -4.31907e-07 4.9336e-06 -2.90294e-06 -9.91517e-06)
(4.98901e-06 2.86232e-08 -1.309e-06 4.9428e-06 -2.92607e-06 -9.93182e-06)
(4.827e-06 7.36889e-08 -2.18149e-06 5.08103e-06 -2.9665e-06 -9.90803e-06)
(4.88174e-06 5.08072e-07 -3.04442e-06 4.91711e-06 -3.0466e-06 -9.79885e-06)
(3.6978e-06 1.12493e-06 -4.07706e-06 6.34235e-06 -3.17709e-06 -1.00402e-05)
(5.17688e-06 1.0143e-06 4.5233e-06 5.16884e-06 -4.52693e-06 -1.03457e-05)
(6.32151e-06 -1.10747e-06 3.1787e-06 3.7293e-06 -4.08096e-06 -1.00508e-05)
(5.13667e-06 3.15521e-08 2.25317e-06 4.89842e-06 -3.88474e-06 -1.00351e-05)
(4.9582e-06 -2.45965e-07 1.34813e-06 4.96616e-06 -3.80513e-06 -9.92436e-06)
(4.86489e-06 -6.01696e-08 4.54802e-07 5.03891e-06 -3.74373e-06 -9.90381e-06)
(4.86377e-06 7.46916e-08 -4.44919e-07 5.03738e-06 -3.74355e-06 -9.90115e-06)
(4.95442e-06 2.57315e-07 -1.33913e-06 4.96088e-06 -3.80438e-06 -9.9153e-06)
(5.12845e-06 -2.45291e-08 -2.2469e-06 4.89537e-06 -3.88313e-06 -1.00238e-05)
(6.31633e-06 1.1174e-06 -3.17608e-06 3.72536e-06 -4.07832e-06 -1.00417e-05)
(5.15095e-06 -1.0088e-06 -4.52293e-06 5.17544e-06 -4.52328e-06 -1.03264e-05)
(3.41283e-06 1.57741e-07 4.13821e-06 3.42098e-06 4.14229e-06 -6.83381e-06)
(3.70612e-06 4.51159e-07 3.00597e-06 3.04341e-06 3.75338e-06 -6.74952e-06)
(3.28529e-06 -1.80443e-07 2.16665e-06 3.69381e-06 3.69156e-06 -6.9791e-06)
(3.14584e-06 5.96959e-08 1.31674e-06 3.61333e-06 3.63229e-06 -6.75917e-06)
(3.06682e-06 -6.55641e-08 4.69266e-07 3.6224e-06 3.58081e-06 -6.68922e-06)
(3.10316e-06 1.99291e-08 -3.73963e-07 3.57453e-06 3.57927e-06 -6.67769e-06)
(3.19495e-06 -6.57582e-08 -1.20107e-06 3.47285e-06 3.62447e-06 -6.6678e-06)
(3.2855e-06 3.3937e-07 -2.05171e-06 3.48934e-06 3.67536e-06 -6.77484e-06)
(3.77947e-06 -2.034e-07 -2.93923e-06 2.84542e-06 3.75229e-06 -6.62489e-06)
(3.4818e-06 -1.32914e-07 -4.19831e-06 3.43776e-06 4.19335e-06 -6.91956e-06)
(3.08539e-06 3.7116e-07 3.75073e-06 3.73433e-06 3.00784e-06 -6.81972e-06)
(3.23763e-06 3.49789e-07 2.9122e-06 3.26808e-06 2.91337e-06 -6.50571e-06)
(3.22157e-06 -8.29523e-08 2.13052e-06 3.46628e-06 2.84922e-06 -6.68784e-06)
(3.3211e-06 -1.40918e-07 1.29237e-06 3.4109e-06 2.80476e-06 -6.732e-06)
(3.3137e-06 -1.03859e-07 4.55224e-07 3.46164e-06 2.7768e-06 -6.77534e-06)
(3.33034e-06 6.57289e-10 -3.74439e-07 3.45972e-06 2.77102e-06 -6.79005e-06)
(3.36688e-06 3.72016e-08 -1.20389e-06 3.40321e-06 2.77903e-06 -6.7701e-06)
(3.27634e-06 1.27259e-07 -2.03956e-06 3.45176e-06 2.79118e-06 -6.72811e-06)
(3.25079e-06 -7.44471e-08 -2.83139e-06 3.19697e-06 2.8276e-06 -6.44776e-06)
(2.8924e-06 -1.97115e-07 -3.75482e-06 3.73386e-06 2.93536e-06 -6.62626e-06)
(3.74699e-06 -2.44907e-07 3.693e-06 3.29574e-06 2.16266e-06 -7.04274e-06)
(3.47672e-06 -1.34703e-07 2.85259e-06 3.26371e-06 2.13279e-06 -6.74043e-06)
(3.33828e-06 -7.86368e-08 2.05615e-06 3.37519e-06 2.05593e-06 -6.71347e-06)
(3.39769e-06 -4.95694e-08 1.24794e-06 3.38925e-06 2.00199e-06 -6.78694e-06)
(3.38527e-06 -2.29043e-08 4.37279e-07 3.4475e-06 1.97357e-06 -6.83277e-06)
(3.39182e-06 -6.95014e-09 -3.72907e-07 3.45754e-06 1.96623e-06 -6.84936e-06)
(3.43776e-06 8.36542e-09 -1.1873e-06 3.41688e-06 1.97621e-06 -6.85464e-06)
(3.41061e-06 3.85717e-08 -1.99654e-06 3.40867e-06 2.00209e-06 -6.81928e-06)
(3.47737e-06 1.32373e-07 -2.79043e-06 3.26091e-06 2.04404e-06 -6.73828e-06)
(3.5298e-06 3.33125e-07 -3.67948e-06 3.28229e-06 2.06349e-06 -6.81209e-06)
(3.65389e-06 4.32087e-08 3.64151e-06 3.13593e-06 1.30733e-06 -6.78982e-06)
(3.42396e-06 -1.81554e-07 2.80783e-06 3.3412e-06 1.28754e-06 -6.76516e-06)
(3.36903e-06 -7.05849e-08 2.00333e-06 3.43489e-06 1.24603e-06 -6.80392e-06)
(3.41938e-06 -2.88024e-08 1.21262e-06 3.45189e-06 1.21105e-06 -6.87128e-06)
(3.41766e-06 9.10702e-12 4.1965e-07 3.47764e-06 1.18842e-06 -6.8953e-06)
(3.4266e-06 1.81918e-08 -3.72624e-07 3.48039e-06 1.18053e-06 -6.90699e-06)
(3.45062e-06 3.61368e-08 -1.17066e-06 3.45847e-06 1.18572e-06 -6.90908e-06)
(3.41793e-06 2.20815e-08 -1.96938e-06 3.44482e-06 1.20332e-06 -6.86275e-06)
(3.42446e-06 6.24344e-08 -2.77899e-06 3.37223e-06 1.22471e-06 -6.79668e-06)
(3.5075e-06 -5.99068e-08 -3.62829e-06 3.21085e-06 1.22783e-06 -6.71835e-06)
(3.65748e-06 -7.64767e-08 3.59255e-06 3.06146e-06 4.60121e-07 -6.71894e-06)
(3.48033e-06 -1.3054e-07 2.78306e-06 3.32407e-06 4.48837e-07 -6.8044e-06)
(3.43575e-06 -4.5612e-08 1.97725e-06 3.41321e-06 4.33416e-07 -6.84895e-06)
(3.45007e-06 -1.05455e-08 1.19078e-06 3.45162e-06 4.17473e-07 -6.90169e-06)
(3.44668e-06 9.67107e-09 4.07182e-07 3.47818e-06 4.05096e-07 -6.92485e-06)
(3.45378e-06 2.00033e-08 -3.76271e-07 3.47592e-06 3.97935e-07 -6.9297e-06)
(3.47207e-06 2.71514e-08 -1.16443e-06 3.44415e-06 3.96363e-07 -6.91622e-06)
(3.46268e-06 2.02233e-08 -1.95609e-06 3.40696e-06 4.01041e-07 -6.86964e-06)
(3.47031e-06 5.07153e-08 -2.76625e-06 3.35514e-06 4.08364e-07 -6.82545e-06)
(3.57834e-06 4.20598e-08 -3.58268e-06 3.15453e-06 4.13454e-07 -6.73287e-06)
(3.6023e-06 8.21048e-09 3.59271e-06 3.10383e-06 -3.81032e-07 -6.70613e-06)
(3.47111e-06 -2.33541e-08 2.77887e-06 3.34048e-06 -3.79912e-07 -6.8116e-06)
(3.45185e-06 -3.14211e-08 1.97118e-06 3.41299e-06 -3.76885e-07 -6.86485e-06)
(3.45941e-06 3.14323e-09 1.18376e-06 3.45512e-06 -3.75184e-07 -6.91453e-06)
(3.44791e-06 1.34694e-08 4.00183e-07 3.48535e-06 -3.78225e-07 -6.93326e-06)
(3.45237e-06 1.67229e-08 -3.81324e-07 3.48302e-06 -3.83158e-07 -6.93539e-06)
(3.46959e-06 1.61991e-08 -1.16707e-06 3.44997e-06 -3.88983e-07 -6.91956e-06)
(3.45943e-06 2.38715e-08 -1.95745e-06 3.41135e-06 -3.97376e-07 -6.87078e-06)
(3.4642e-06 -1.18069e-08 -2.76641e-06 3.35941e-06 -4.0539e-07 -6.82361e-06)
(3.57431e-06 -2.59123e-08 -3.58337e-06 3.15565e-06 -4.09749e-07 -6.72996e-06)
(3.4997e-06 -8.22751e-08 3.63782e-06 3.19139e-06 -1.20668e-06 -6.69109e-06)
(3.41619e-06 1.65663e-08 2.78765e-06 3.37153e-06 -1.20865e-06 -6.78772e-06)
(3.41262e-06 -1.09044e-08 1.98212e-06 3.45463e-06 -1.19049e-06 -6.86725e-06)
(3.44117e-06 2.14202e-08 1.18992e-06 3.47818e-06 -1.17339e-06 -6.91934e-06)
(3.41948e-06 1.79402e-08 3.9927e-07 3.50437e-06 -1.16635e-06 -6.92384e-06)
(3.42066e-06 1.18551e-08 -3.87104e-07 3.50357e-06 -1.16892e-06 -6.92422e-06)
(3.44315e-06 -9.15452e-11 -1.17919e-06 3.47585e-06 -1.1807e-06 -6.919e-06)
(3.4085e-06 1.54403e-08 -1.97252e-06 3.45775e-06 -1.20158e-06 -6.86624e-06)
(3.40672e-06 -2.98966e-08 -2.77902e-06 3.38426e-06 -1.22354e-06 -6.79098e-06)
(3.49671e-06 7.38662e-08 -3.6305e-06 3.2138e-06 -1.2262e-06 -6.71052e-06)
(3.51136e-06 3.26074e-07 3.68861e-06 3.2778e-06 -2.05569e-06 -6.78916e-06)
(3.45742e-06 1.13687e-07 2.79621e-06 3.27499e-06 -2.03972e-06 -6.73241e-06)
(3.40726e-06 2.62512e-08 2.00902e-06 3.42582e-06 -1.99944e-06 -6.83309e-06)
(3.4304e-06 1.1575e-08 1.20855e-06 3.44469e-06 -1.97161e-06 -6.8751e-06)
(3.38306e-06 1.08611e-08 4.04279e-07 3.495e-06 -1.95765e-06 -6.87806e-06)
(3.38272e-06 1.63406e-08 -3.95357e-07 3.49422e-06 -1.95883e-06 -6.87694e-06)
(3.42618e-06 1.08852e-08 -1.20021e-06 3.44459e-06 -1.97452e-06 -6.87077e-06)
(3.39534e-06 -1.43934e-08 -2.00233e-06 3.43058e-06 -2.00385e-06 -6.82592e-06)
(3.44825e-06 -1.11362e-07 -2.7912e-06 3.28305e-06 -2.04683e-06 -6.7313e-06)
(3.51402e-06 -3.19566e-07 -3.68377e-06 3.2917e-06 -2.0668e-06 -6.80572e-06)
(2.86921e-06 -2.13895e-07 3.76353e-06 3.76421e-06 -2.94211e-06 -6.63342e-06)
(3.21306e-06 -7.44405e-08 2.83712e-06 3.24583e-06 -2.8344e-06 -6.45888e-06)
(3.26605e-06 1.30857e-07 2.05467e-06 3.49156e-06 -2.79676e-06 -6.75761e-06)