/*--------------------------------*- C++ -*----------------------------------*\
| =========                 |                                                 |
| \\      /  F ield         | OpenFOAM: The Open Source CFD Toolbox           |
|  \\    /   O peration     | Version:  2406                                  |
|   \\  /    A nd           | Website:  www.openfoam.com                      |
|    \\/     M anipulation  |                                                 |
\*---------------------------------------------------------------------------*/
FoamFile
{
    version     2.0;
    format      ascii;
    arch        "LSB;label=32;scalar=64";
    class       volScalarField;
    location    "100";
    object      turbulenceProperties:L;
}
// * * * * * * * * * * * * * * * * * * * * * * * * * * * * * * * * * * * * * //

dimensions      [0 1 0 0 0 0 0];

internalField   nonuniform List<scalar> 
25000
(
0.0353434
0.0360063
0.037553
0.0379225
0.0380974
0.0380923
0.0379191
0.0375896
0.0359782
0.0351902
0.0359556
0.036317
0.0380591
0.0391013
0.0396433
0.0396631
0.0391755
0.0382022
0.0365511
0.0360298
0.0374863
0.0380226
0.0395421
0.040553
0.0410848
0.0411037
0.0406172
0.0396604
0.0382156
0.0376408
0.0378749
0.0390744
0.0405406
0.0415952
0.0421537
0.042166
0.0416388
0.0406239
0.0391885
0.0379694
0.0380622
0.0396091
0.041071
0.0421484
0.0427169
0.042725
0.0421746
0.0411192
0.0396871
0.0381409
0.0380728
0.0396369
0.0410858
0.0421592
0.0427226
0.0427272
0.0421742
0.0411179
0.0396856
0.0381367
0.0379041
0.0391481
0.0405995
0.0416272
0.0421678
0.0421697
0.0416378
0.0406206
0.039184
0.0379572
0.0375815
0.0381851
0.0396378
0.0406077
0.0411084
0.0411106
0.0406162
0.0396551
0.0382094
0.0376216
0.0359787
0.0365291
0.0381868
0.0391727
0.0396754
0.0396774
0.0391781
0.0381993
0.0365452
0.036007
0.0351734
0.0360091
0.0376225
0.0379557
0.0381324
0.0381313
0.037956
0.0376236
0.0360075
0.0351927
0.0302688
0.0305575
0.0315117
0.0317364
0.0318515
0.0318555
0.031726
0.0314755
0.0304168
0.0299855
0.0305122
0.031219
0.0318929
0.0321902
0.0323839
0.0323845
0.0321957
0.0318893
0.0312471
0.030454
0.0314374
0.0318302
0.0324561
0.0327418
0.0328893
0.0328866
0.0327427
0.0324876
0.0319057
0.0314971
0.0316841
0.0321429
0.0327162
0.0330472
0.0332144
0.0332111
0.0330504
0.0327458
0.0321977
0.0317395
0.0318102
0.0323411
0.0328636
0.0332026
0.0333656
0.0333663
0.0332102
0.0328862
0.0323882
0.0318675
0.0318222
0.0323523
0.0328608
0.0331981
0.0333605
0.0333624
0.0332073
0.0328841
0.0323871
0.0318637
0.0316956
0.0321641
0.0327204
0.0330327
0.0331982
0.0332002
0.0330429
0.0327403
0.0321943
0.0317276
0.0314519
0.0318775
0.0324619
0.032725
0.0328726
0.0328752
0.032734
0.0324798
0.0319005
0.0314772
0.0304071
0.0312213
0.031867
0.0321811
0.0323765
0.0323789
0.0321879
0.0318806
0.0312378
0.0304237
0.0299558
0.0304187
0.0314724
0.0317224
0.031858
0.0318601
0.03173
0.0314828
0.0304273
0.0299783
0.031722
0.0324494
0.0329841
0.0334142
0.0336762
0.033707
0.0335021
0.0330464
0.0322942
0.0312651
0.0323845
0.0333414
0.0337019
0.0339712
0.0341648
0.0341711
0.0339886
0.033705
0.0333969
0.0323316
0.0328872
0.0336152
0.0342108
0.034498
0.0346492
0.0346383
0.0344591
0.0341899
0.0337179
0.0330416
0.0333558
0.0339118
0.034466
0.0347788
0.0349503
0.034938
0.0347522
0.0344584
0.0339725
0.0334773
0.0336232
0.0341117
0.0346162
0.0349353
0.0350957
0.0350926
0.0349342
0.0346307
0.0341555
0.0336804
0.0336561
0.0341273
0.0346057
0.0349216
0.0350849
0.0350865
0.0349304
0.0346287
0.0341564
0.0336785
0.0334553
0.0339507
0.0344319
0.0347303
0.0349182
0.0349209
0.0347421
0.0344529
0.0339739
0.0334697
0.0330096
0.0336991
0.0341606
0.0344327
0.0346144
0.0346178
0.0344441
0.0341794
0.0337172
0.0330242
0.0322739
0.0333678
0.0336671
0.0339535
0.0341428
0.0341465
0.0339639
0.0336839
0.0333817
0.0322884
0.0312165
0.0322781
0.0330085
0.0334567
0.0336694
0.0336736
0.0334703
0.0330258
0.0322895
0.031239
0.0361647
0.0377061
0.0380402
0.0390587
0.0395576
0.0396057
0.0393164
0.0385318
0.0379909
0.0359258
0.0375917
0.0391192
0.039594
0.040146
0.0404068
0.0403991
0.0401482
0.0396479
0.0394394
0.0380022
0.0379095
0.0394653
0.0404038
0.0409101
0.041159
0.041138
0.0408064
0.0402738
0.039636
0.0384478
0.0389868
0.0400677
0.040866
0.0413423
0.0416295
0.0416122
0.0412859
0.0407855
0.0400783
0.0391973
0.0394782
0.0403316
0.0411149
0.0416104
0.0418798
0.0418747
0.0415937
0.0410915
0.0403171
0.0394829
0.0395249
0.0403383
0.0410932
0.0415905
0.0418638
0.041861
0.0415848
0.0410881
0.0403225
0.039489
0.0392469
0.0400973
0.0407697
0.0412547
0.0415696
0.0415697
0.041258
0.040775
0.0400927
0.0392106
0.038486
0.0396472
0.0402334
0.0407481
0.0410672
0.0410707
0.040761
0.0402521
0.0396498
0.0384536
0.0379671
0.0394057
0.0395657
0.0400545
0.0403008
0.0403068
0.040073
0.039595
0.0394192
0.0379561
0.0358421
0.0379185
0.0384017
0.0391745
0.0394709
0.0394784
0.039201
0.038441
0.037946
0.0358615
0.0407331
0.043126
0.043836
0.0455734
0.0461946
0.0461606
0.0457638
0.0446212
0.0440356
0.0411878
0.0429515
0.045384
0.0463801
0.0474279
0.0477598
0.0477021
0.047313
0.0463428
0.0458491
0.0439743
0.0437098
0.0462287
0.0476426
0.0486097
0.0491164
0.0491177
0.0485072
0.0473861
0.0462968
0.0444209
0.0455336
0.047377
0.0485802
0.0494887
0.0500942
0.0501099
0.0494983
0.0484647
0.0471944
0.0455595
0.0461397
0.0477094
0.049102
0.0500933
0.0506656
0.0506739
0.0500805
0.0490284
0.0475661
0.0459739
0.0461082
0.0476725
0.0491006
0.0501162
0.0506758
0.0506601
0.0500685
0.0490251
0.0475797
0.045998
0.0457239
0.047291
0.0485006
0.049491
0.0500708
0.0500568
0.0494534
0.0484517
0.0472371
0.0456259
0.0446157
0.0463908
0.047369
0.0484457
0.0490195
0.0490134
0.048438
0.0473634
0.046354
0.0445041
0.0440622
0.0458622
0.0462463
0.0472004
0.0475701
0.0475714
0.0472112
0.0462761
0.0458603
0.0439889
0.0411017
0.0439232
0.0444184
0.045575
0.0459818
0.0459849
0.0456002
0.0444704
0.0439578
0.0410941
0.0445044
0.0475011
0.0487593
0.050598
0.0509669
0.0507612
0.0503589
0.0491597
0.048453
0.0454594
0.0472941
0.0500788
0.0514308
0.0526049
0.052868
0.0527578
0.0522941
0.0510223
0.0501452
0.0482807
0.0486792
0.0513183
0.0526696
0.0538792
0.0546292
0.0546953
0.0539245
0.0523813
0.0509948
0.0488889
0.0506418
0.0526386
0.0539022
0.0551866
0.0561045
0.0561866
0.0553925
0.0539121
0.0522413
0.0502134
0.0510042
0.052889
0.0546786
0.0561385
0.0569907
0.0570338
0.0561884
0.0546435
0.0527157
0.0507117
0.0508102
0.0527891
0.054725
0.0562381
0.0570562
0.0570424
0.0561879
0.0546422
0.0527268
0.0507501
0.0503979
0.0523127
0.0539571
0.0554211
0.056205
0.0561859
0.0553698
0.0539013
0.0522876
0.0503335
0.0492167
0.0511062
0.0523886
0.0539164
0.0546572
0.0546425
0.0538951
0.0523756
0.0510813
0.0490875
0.0485526
0.0501947
0.0509599
0.0522677
0.0527337
0.0527283
0.0522653
0.0509911
0.0502067
0.0484326
0.0454808
0.0483262
0.0489725
0.0502766
0.0507363
0.0507293
0.0502924
0.0490315
0.0483804
0.045437
0.0474848
0.0503096
0.0516042
0.05293
0.0528836
0.0525363
0.0521905
0.0511385
0.0504178
0.0480632
0.0500238
0.0522775
0.053456
0.0543093
0.0544744
0.0543585
0.0539003
0.0526483
0.0515821
0.0501474
0.051516
0.0533652
0.0541988
0.0553025
0.0561235
0.0562124
0.0554967
0.0540014
0.0526919
0.0508795
0.0529934
0.0543724
0.055351
0.0566909
0.0576223
0.0577022
0.0569875
0.0555524
0.0539806
0.0521945
0.0529634
0.0545212
0.0561934
0.057661
0.0584567
0.0585049
0.0577377
0.0562406
0.0544703
0.052694
0.0526537
0.0544236
0.0562586
0.0577594
0.0585235
0.0585242
0.0577558
0.0562461
0.0544709
0.0527251
0.0522849
0.053958
0.0555537
0.0570225
0.057748
0.0577496
0.0570151
0.0555564
0.054008
0.0523165
0.051197
0.0527547
0.0540241
0.0555566
0.0562506
0.056242
0.0555505
0.0540368
0.0527802
0.0511398
0.0505186
0.0516529
0.0526597
0.0540044
0.0544841
0.0544748
0.0539923
0.0526855
0.0516867
0.0504315
0.0481637
0.0502932
0.0510211
0.0522755
0.0527179
0.0527072
0.0522798
0.0510846
0.0503715
0.0481427
0.0489783
0.0512081
0.0522441
0.0530065
0.0527567
0.0524441
0.0521828
0.0513426
0.0506837
0.0490388
0.0508817
0.052468
0.0532635
0.0538037
0.0540082
0.0539322
0.0535116
0.0524487
0.05147
0.0503771
0.0521224
0.0531704
0.0536588
0.0546857
0.0554977
0.0555436
0.0549214
0.0536565
0.0525927
0.0511911
0.0530408
0.0538424
0.0547104
0.0560355
0.0568572
0.0568719
0.0562646
0.0550331
0.0537103
0.0523353
0.0528387
0.0540328
0.0555282
0.0568643
0.0575172
0.0575424
0.0569144
0.0556236
0.0541585
0.0527716
0.0526008
0.0540044
0.0555681
0.0568925
0.0575371
0.0575521
0.0569396
0.0556316
0.0541428
0.052781
0.0523187
0.053599
0.054982
0.0562795
0.0568977
0.0569191
0.0563204
0.0550419
0.0536896
0.0524015
0.0514008
0.0525713
0.0536842
0.0550235
0.0556119
0.05561
0.0550272
0.0537015
0.0526124
0.0514035
0.0507621
0.0515089
0.0525278
0.0537061
0.0541491
0.0541335
0.0536671
0.0525092
0.0515226
0.0506974
0.0492278
0.05056
0.0513213
0.0523947
0.0527774
0.0527558
0.0523575
0.0513286
0.0506125
0.0492116
0.0497812
0.0514754
0.0521774
0.0525609
0.0523126
0.0521176
0.0519005
0.0512399
0.0507217
0.0496431
0.0511082
0.0522036
0.0526879
0.0530702
0.0533252
0.0532558
0.0528453
0.0519642
0.0512156
0.0504742
0.0520061
0.0525707
0.0529799
0.0539881
0.054707
0.0546478
0.0540731
0.053012
0.0521878
0.0512142
0.0525323
0.0530707
0.0539914
0.0552647
0.0559304
0.0558408
0.0552823
0.0542198
0.0531012
0.0521061
0.0523685
0.0533448
0.0547258
0.0559213
0.0564422
0.0564218
0.0558743
0.0547456
0.0535042
0.0524483
0.0522863
0.0533659
0.0546951
0.0558535
0.0564044
0.0564177
0.0559062
0.0547606
0.0534815
0.0524333
0.052055
0.0529883
0.0541758
0.0553015
0.0558431
0.0558746
0.055363
0.0542456
0.0530549
0.0520894
0.0512825
0.0521197
0.0530662
0.0542123
0.0547197
0.0547227
0.0542195
0.0530756
0.0521468
0.0512923
0.0507268
0.0512163
0.0520971
0.0530799
0.053481
0.0534627
0.0530243
0.0520366
0.0511987
0.0506799
0.0497945
0.0506013
0.0512856
0.052129
0.0524409
0.0524093
0.0520436
0.0512069
0.0505761
0.0497508
0.0503679
0.0517772
0.0521886
0.0523379
0.0521832
0.0521265
0.0519183
0.0513462
0.0509955
0.050324
0.0513896
0.0522097
0.0524665
0.052776
0.053051
0.0529806
0.0525699
0.05179
0.0512728
0.050876
0.0520126
0.0523544
0.052772
0.0537597
0.0543625
0.0542113
0.0536645
0.052734
0.0520821
0.0514681
0.0523249
0.0527905
0.0537605
0.0549469
0.0554734
0.0553027
0.054767
0.0538211
0.0528442
0.0521338
0.0522855
0.053125
0.0544012
0.0554648
0.0558897
0.0558303
0.0553257
0.0543086
0.0532136
0.0524038
0.0523347
0.053163
0.0543115
0.0553328
0.0558177
0.0558203
0.0553606
0.0543274
0.0531896
0.0523772
0.052107
0.0527795
0.0538207
0.0548132
0.0553053
0.0553314
0.0548611
0.0538578
0.0527857
0.0520595
0.0514244
0.0519925
0.0528178
0.0538306
0.05429
0.05429
0.053826
0.0528035
0.0519976
0.0514237
0.0509783
0.0512462
0.051966
0.052815
0.0531915
0.0531716
0.0527483
0.0518777
0.051212
0.0509573
0.0504269
0.050908
0.0514613
0.0521271
0.0523984
0.0523596
0.0520085
0.0513153
0.0508214
0.0503712
0.0512491
0.0524239
0.052518
0.052479
0.0523955
0.0524302
0.0522041
0.0516658
0.0514924
0.0511596
0.0521344
0.0525941
0.0526041
0.0528292
0.0530938
0.0530485
0.0526592
0.0519254
0.0515892
0.0515721
0.0524718
0.0525452
0.0528941
0.0538118
0.0543172
0.0541368
0.0536443
0.0528003
0.0522604
0.0519654
0.0525912
0.0529209
0.0538417
0.0549089
0.0553361
0.05514
0.0546438
0.0537891
0.0529158
0.0524358
0.052597
0.0532746
0.0544167
0.0553524
0.0557114
0.0556332
0.0551658
0.0542381
0.0532536
0.05265
0.0526743
0.0533038
0.0543109
0.0552166
0.0556447
0.0556285
0.0551966
0.054251
0.0532268
0.0526161
0.0524126
0.0529051
0.053843
0.0547327
0.055179
0.0551839
0.0547276
0.0538108
0.0528415
0.0523143
0.0517961
0.0521566
0.0528965
0.0538175
0.0542428
0.0542315
0.0537827
0.0528457
0.052138
0.051804
0.051492
0.0515469
0.0521191
0.0528793
0.0532403
0.0532222
0.0528127
0.0520225
0.0515113
0.0515164
0.0511767
0.0514774
0.0518679
0.0523965
0.0526477
0.0526142
0.0522802
0.051704
0.0513713
0.0511497
0.0522077
0.0532303
0.0530546
0.052871
0.0528192
0.0528908
0.0526361
0.0521021
0.0520732
0.0519446
0.0531074
0.0530924
0.0528554
0.0530022
0.0532773
0.0532995
0.0529538
0.0522325
0.0520082
0.0523743
0.0531931
0.0528623
0.0530699
0.0539081
0.0543838
0.0542551
0.0538474
0.0530585
0.0525782
0.0525755
0.0531303
0.053175
0.0539721
0.0549322
0.0553309
0.05518
0.0547462
0.0539614
0.0531635
0.0528941
0.0530989
0.053539
0.0545356
0.0553764
0.0557164
0.0556516
0.055227
0.0543722
0.0534773
0.0530745
0.053123
0.0535638
0.0544706
0.0553013
0.0556959
0.0556662
0.0552501
0.0543742
0.0534509
0.0530387
0.0528262
0.0531758
0.0540443
0.0548702
0.0552849
0.0552646
0.0548064
0.0539551
0.0530826
0.0527457
0.0522914
0.0524751
0.0531469
0.0540066
0.0544126
0.0543896
0.0539409
0.0530665
0.052445
0.0523312
0.0521538
0.051999
0.0524384
0.0531354
0.0534882
0.0534761
0.0530792
0.0523461
0.051959
0.0522142
0.051919
0.0522138
0.0524306
0.0528456
0.0530875
0.0530706
0.0527622
0.0522823
0.0520971
0.0519167
0.0528116
0.0539458
0.0536376
0.0534032
0.0533971
0.0534918
0.0532307
0.0526974
0.0527438
0.0524724
0.0540435
0.0535816
0.0531625
0.0532847
0.0536148
0.0537258
0.0534367
0.0527254
0.0525728
0.0532323
0.0539629
0.0532248
0.0533036
0.0540914
0.0545949
0.0545584
0.0542339
0.0534798
0.0530405
0.0532869
0.0537698
0.0534982
0.0541661
0.0550535
0.0554741
0.055401
0.0550289
0.0542913
0.0535606
0.053492
0.0536851
0.0538719
0.0547412
0.0555268
0.0558799
0.0558448
0.0554602
0.0546612
0.0538487
0.0536527
0.0536407
0.0539003
0.0547319
0.0555216
0.0559058
0.0558731
0.0554672
0.0546478
0.0538227
0.0536164
0.0533408
0.0535485
0.0543499
0.055135
0.0555375
0.0555009
0.0550399
0.0542439
0.0534707
0.0533291
0.0529124
0.05292
0.0535094
0.0543146
0.0547136
0.054689
0.0542439
0.0534265
0.052895
0.0529859
0.0529361
0.0525834
0.0528864
0.0535179
0.0538634
0.0538656
0.0534937
0.0528205
0.0525433
0.0529962
0.0524759
0.0530444
0.0531152
0.0534284
0.0536633
0.0536728
0.0534079
0.0530156
0.052934
0.0524716
0.0529227
0.0545038
0.0541879
0.0540239
0.0541002
0.0542177
0.053969
0.0534405
0.0534484
0.0526166
0.0547335
0.0539173
0.0534649
0.0536609
0.054061
0.0542314
0.0539787
0.0532817
0.0531702
0.0540382
0.0545808
0.0534967
0.0535653
0.054366
0.0549052
0.05493
0.0546466
0.05391
0.0535078
0.0540069
0.0543378
0.0537896
0.0543965
0.0552586
0.0557085
0.055689
0.0553456
0.0546293
0.0539624
0.0541248
0.0542489
0.0541807
0.0549626
0.0557307
0.0561062
0.0560947
0.0557339
0.0549713
0.0542357
0.0542715
0.0541725
0.0542182
0.0549764
0.0557507
0.0561433
0.0561185
0.0557246
0.0549513
0.0542204
0.0542363
0.0539005
0.0539145
0.054623
0.0553767
0.0557875
0.055756
0.055303
0.0545611
0.0538934
0.053961
0.0535777
0.0533785
0.0538474
0.0545953
0.0549999
0.0549912
0.0545641
0.0538127
0.0533835
0.0536743
0.053676
0.0531811
0.0533342
0.0538951
0.0542351
0.0542599
0.0539282
0.0533266
0.0531571
0.0537303
0.052638
0.0538539
0.0538275
0.0540421
0.0542625
0.054302
0.0540966
0.0537921
0.0537421
0.0526058
0.0524166
0.0546703
0.0545557
0.0545919
0.0548409
0.0550385
0.0548409
0.054316
0.0541104
0.0523453
0.0549719
0.0540776
0.0537818
0.0541673
0.054656
0.054849
0.0546094
0.0539367
0.0538511
0.0546775
0.0548866
0.0537168
0.0539609
0.0548552
0.055415
0.0554397
0.0551362
0.0543997
0.0540398
0.0547171
0.0547409
0.0541297
0.0547955
0.0556823
0.0561438
0.0561237
0.055758
0.055035
0.0544298
0.0548056
0.0547875
0.054563
0.0553202
0.0561011
0.0564934
0.0564842
0.0561198
0.0553683
0.0546995
0.0549599
0.054779
0.0546117
0.055303
0.056076
0.0564907
0.0564815
0.0560954
0.0553512
0.0547027
0.0549347
0.0545787
0.0543496
0.0549407
0.0556703
0.056109
0.0561019
0.0556661
0.0549706
0.0544045
0.054678
0.0543281
0.0539044
0.0542267
0.054918
0.0553406
0.0553612
0.0549629
0.0542767
0.0539584
0.0544185
0.0543196
0.0538159
0.0538274
0.0543226
0.0546602
0.054711
0.0544262
0.0539011
0.0538362
0.0543622
0.0523947
0.0544963
0.0545369
0.0547035
0.0549177
0.0549825
0.0548301
0.0545814
0.0544217
0.0523473
0.0521867
0.0545242
0.0548184
0.0551425
0.0555987
0.0558872
0.0557438
0.0552077
0.0545723
0.052359
0.0548034
0.0541336
0.0541369
0.0547571
0.055306
0.0554725
0.0552218
0.0545885
0.0545105
0.0550153
0.0549571
0.0539267
0.0544603
0.055476
0.0560086
0.0559637
0.0555954
0.0548593
0.0545516
0.0553355
0.0550404
0.0545298
0.0553288
0.0562525
0.0566754
0.0565887
0.0561646
0.0554287
0.0548894
0.0554671
0.055333
0.0550254
0.0557907
0.0565793
0.0569502
0.0569085
0.0565196
0.0557707
0.0551686
0.0556482
0.0554701
0.0550851
0.0556958
0.056454
0.0568726
0.0568688
0.0564895
0.0557677
0.0551955
0.0556376
0.0553501
0.0548481
0.0552929
0.0559841
0.056441
0.0564624
0.0560499
0.0553974
0.0549314
0.055402
0.055089
0.0544734
0.0546288
0.0552546
0.0556864
0.0557356
0.055371
0.0547504
0.0545456
0.0551265
0.0547005
0.0544382
0.0543348
0.0547695
0.055097
0.0551652
0.0549239
0.0544711
0.0544935
0.0547358
0.0523764
0.0548375
0.0551792
0.0553651
0.0555783
0.0556561
0.0555357
0.0552935
0.0548182
0.052352
0.0542821
0.0539227
0.0549017
0.055602
0.0562893
0.0566723
0.056564
0.055958
0.0546683
0.0548927
0.0540727
0.0540998
0.0545258
0.0553771
0.0559624
0.0560823
0.0558132
0.0552273
0.0551174
0.0549139
0.0547768
0.0541872
0.0550388
0.0561608
0.0566462
0.0565159
0.0560755
0.055346
0.055087
0.0557964
0.0552999
0.0550298
0.0559655
0.0569169
0.0572806
0.0571101
0.0566272
0.0558853
0.0554076
0.0561035
0.0559353
0.0556043
0.0563814
0.0571647
0.0574925
0.0574074
0.0569934
0.0562475
0.0557052
0.0563513
0.0562558
0.0556827
0.0562126
0.0569412
0.0573456
0.0573391
0.0569656
0.0562589
0.0557482
0.0563584
0.0561864
0.0554591
0.0557656
0.05641
0.0568688
0.0569101
0.056517
0.055893
0.0555076
0.0561249
0.0557951
0.0551195
0.0551337
0.0557
0.0561272
0.0561905
0.0558479
0.0552727
0.0551622
0.0557452
0.0547387
0.0550511
0.0549091
0.0553079
0.055619
0.0556844
0.0554622
0.0550535
0.0551068
0.0547551
0.0548812
0.054787
0.0557186
0.0560432
0.0562784
0.056344
0.0561987
0.0558504
0.0548097
0.0548873
0.0625505
0.0532517
0.055014
0.0561295
0.0569886
0.0573895
0.0572388
0.056463
0.0545132
0.0636938
0.0532402
0.0542322
0.0550946
0.0560981
0.056661
0.0567068
0.056405
0.0558618
0.0556605
0.0545568
0.054666
0.0546926
0.055753
0.0568982
0.0573073
0.0570975
0.0566026
0.0558932
0.0556804
0.0560928
0.0557383
0.0557364
0.0567109
0.057627
0.0579101
0.0576677
0.0571555
0.0564314
0.0560167
0.0567163
0.0566706
0.0563456
0.0570826
0.0578157
0.0580767
0.0579519
0.0575325
0.0568063
0.0563245
0.0570603
0.0570962
0.0564116
0.0568564
0.0575271
0.0578892
0.05787
0.0575073
0.0568189
0.0563632
0.0570751
0.0569886
0.0561754
0.056375
0.0569635
0.0573948
0.0574368
0.0570564
0.0564513
0.056131
0.0568048
0.0563261
0.0558302
0.0557567
0.0562749
0.0566772
0.0567321
0.0563963
0.0558485
0.055807
0.0562021
0.0545407
0.0556295
0.0555605
0.0559509
0.0562389
0.0562822
0.0560574
0.0556647
0.0556606
0.0545395
0.063565
0.0544944
0.0561082
0.0567073
0.0569954
0.0570312
0.0568048
0.0562195
0.0545502
0.0635357
0.0424683
0.0531716
0.0552154
0.0567351
0.0576588
0.0579605
0.057654
0.0566009
0.0546555
0.0420778
0.0529672
0.0545555
0.0558117
0.0568678
0.0573595
0.0573106
0.0569541
0.0564247
0.0560448
0.0545406
0.0547343
0.0554113
0.0565168
0.057596
0.0579235
0.0576664
0.0571486
0.056468
0.056285
0.0561791
0.0563783
0.0565806
0.0574613
0.0582753
0.0584831
0.0582169
0.0577231
0.0570386
0.0566776
0.0572334
0.0574718
0.0571677
0.0577977
0.0584376
0.0586336
0.0585012
0.0581096
0.0574192
0.0569884
0.0577016
0.0578586
0.0571843
0.0575481
0.0581467
0.058457
0.0584288
0.058086
0.0574192
0.057007
0.0577156
0.0575992
0.056914
0.057061
0.0576015
0.0579892
0.0580158
0.0576383
0.0570421
0.0567693
0.0573612
0.0565587
0.0565363
0.0564493
0.056944
0.0573111
0.0573371
0.0569883
0.0564491
0.0564411
0.0564242
0.05468
0.0561075
0.056249
0.0566654
0.0569308
0.0569362
0.0566842
0.0562696
0.0560876
0.0546767
0.0420636
0.0545893
0.0563081
0.0572937
0.0576726
0.0576679
0.0573007
0.0563522
0.054635
0.0419972
0.0242055
0.055063
0.0554831
0.0573443
0.0582718
0.058388
0.0578361
0.0565089
0.0567483
0.0240675
0.0546847
0.0550845
0.0566675
0.0576937
0.0580956
0.0579508
0.0575328
0.0569818
0.0563555
0.0564725
0.0550148
0.0563353
0.0573308
0.058267
0.0585268
0.0582653
0.0577591
0.0571188
0.056949
0.0561875
0.0571164
0.0575221
0.0581921
0.0588531
0.0590135
0.0587843
0.0583548
0.0577277
0.057418
0.0576462
0.0582309
0.0580189
0.0584852
0.0590082
0.0591662
0.0590718
0.0587416
0.0580999
0.0577141
0.0582533
0.0584619
0.0579553
0.058242
0.0587711
0.0590442
0.0590258
0.0587139
0.058075
0.0577026
0.0582627
0.0579808
0.0576493
0.0577833
0.0582934
0.0586434
0.0586501
0.0582737
0.0576878
0.0574529
0.0577827
0.0566002
0.0572296
0.0571933
0.0576837
0.0580183
0.0580097
0.0576434
0.0571069
0.0570934
0.0565106
0.0568142
0.0565033
0.0569638
0.0574357
0.0576835
0.0576547
0.0573723
0.0569074
0.0564436
0.0568011
0.0240737
0.0566817
0.0563958
0.0577524
0.0582586
0.0582194
0.0576798
0.05637
0.0567044
0.0240581
0.0161288
0.0611702
0.056039
0.0578757
0.0587517
0.0586488
0.0578337
0.0565618
0.0624274
0.0160803
0.0603713
0.0556852
0.057478
0.058446
0.0587527
0.0585258
0.0580523
0.0574335
0.0565846
0.0618733
0.0556216
0.057204
0.0580396
0.0587942
0.0590085
0.058782
0.05832
0.0577299
0.0575227
0.0563933
0.0577322
0.0583409
0.0587548
0.0592574
0.0594165
0.0592787
0.0589437
0.0583795
0.0580995
0.0578847
0.0587457
0.0587005
0.0589946
0.0594227
0.0595946
0.0595872
0.0593394
0.0587465
0.0583866
0.0586065
0.0587674
0.058556
0.0587829
0.05928
0.0595593
0.0595817
0.0593143
0.0587063
0.0583597
0.0586181
0.0580677
0.0582333
0.0583919
0.0588994
0.0592456
0.0592514
0.0588854
0.0583173
0.058105
0.0580199
0.0567253
0.0577589
0.0578458
0.0583525
0.0586775
0.0586529
0.0582805
0.0577537
0.0576717
0.0567481
0.0624482
0.0567789
0.0575485
0.0581243
0.058379
0.0583377
0.0580342
0.0574785
0.0567362
0.0625218
0.016083
0.0623616
0.0566413
0.0580083
0.0586445
0.058593
0.057903
0.0565723
0.0623435
0.0160804
0.0120172
0.0516728
0.0575938
0.0583122
0.0590896
0.0588484
0.0579309
0.0577526
0.0507832
0.0120023
0.0511565
0.0565347
0.0581648
0.0591437
0.0593975
0.0591259
0.0586107
0.0578626
0.0571179
0.0505638
0.0572482
0.0579437
0.0587122
0.0593083
0.0595097
0.0593441
0.0589311
0.0583782
0.0580535
0.0576874
0.0582347
0.0590488
0.0592528
0.0596403
0.059854
0.0598347
0.0595831
0.0590593
0.0587715
0.0581371
0.0590486
0.0592709
0.0594316
0.0598232
0.0600738
0.0601803
0.0600005
0.0594295
0.059064
0.0588647
0.0589102
0.0590722
0.0592681
0.0597829
0.0601276
0.0602179
0.0599852
0.059391
0.0590435
0.0588999
0.0581527
0.0587504
0.0589589
0.0595014
0.0598919
0.0599207
0.0595676
0.0590124
0.0587853
0.0583042
0.057932
0.0581757
0.0584659
0.0590148
0.0593667
0.0593519
0.0589857
0.0584587
0.0582165
0.0581117
0.0507836
0.0572767
0.0580238
0.0587736
0.0590736
0.0590492
0.0587275
0.0580231
0.0573236
0.0508546
0.0120031
0.0506844
0.0579206
0.0582412
0.0589261
0.0588952
0.0581873
0.0579061
0.0507462
0.0120037
0.00975675
0.0317124
0.0619076
0.059177
0.059489
0.0591744
0.0585654
0.0614622
0.0313892
0.00975518
0.0316048
0.0582197
0.0585792
0.0596398
0.0598836
0.0596114
0.0590736
0.0581653
0.058486
0.0313809
0.0614938
0.0583644
0.0591912
0.0596908
0.0599026
0.0598082
0.059449
0.0589211
0.0583934
0.0613371
0.0590637
0.0595032
0.0596036
0.0599367
0.0602342
0.0603266
0.0601355
0.0596351
0.0592853
0.0587805
0.0593364
0.0596577
0.0597549
0.0601636
0.0605242
0.0607386
0.0605972
0.060026
0.0596186
0.0591557
0.0591235
0.0594702
0.0596652
0.0602299
0.060667
0.060825
0.0606112
0.0600158
0.0596296
0.0592255
0.0587264
0.0591692
0.0594486
0.0600364
0.0604872
0.0605516
0.0602089
0.0596586
0.0593573
0.0590028
0.0616301
0.05846
0.0589966
0.0595968
0.059989
0.0599986
0.0596387
0.0590941
0.0585914
0.0619271
0.0314158
0.0586278
0.0583352
0.0592977
0.059669
0.0596683
0.0593105
0.0583966
0.0587247
0.0314134
0.00975606
0.0313732
0.061576
0.0588802
0.0592543
0.0592565
0.0588987
0.0616699
0.031382
0.009756
0.00845731
0.0213513
0.0630213
0.0611442
0.0603596
0.0601038
0.0606005
0.0620777
0.0212859
0.0084643
0.021316
0.0616127
0.0587326
0.0599039
0.0602376
0.0600419
0.0595174
0.0584892
0.0616484
0.0212909
0.0626062
0.0585502
0.0595191
0.060043
0.0603274
0.0603256
0.060011
0.0594743
0.058739
0.0618063
0.0610636
0.0597883
0.0599492
0.0603206
0.0607392
0.0609245
0.0607485
0.0602443
0.0597859
0.0607998
0.0602208
0.0600195
0.0601691
0.0606559
0.0611461
0.0614333
0.0612762
0.0606742
0.060193
0.0601693
0.0600853
0.0599314
0.0601936
0.0608333
0.0613702
0.0615697
0.0613295
0.0607055
0.0602419
0.0602846
0.0608362
0.0596513
0.0600517
0.0606962
0.0612088
0.0612915
0.0609345
0.0603641
0.0599174
0.0611371
0.0623185
0.0588079
0.0595866
0.0602657
0.0606988
0.0607217
0.0603466
0.0597296
0.0589493
0.0624446
0.0212969
0.0618079
0.0586847
0.0598363
0.0602933
0.0603017
0.059865
0.0587458
0.0619063
0.0212969
0.00846476
0.0212793
0.06196
0.0609421
0.0603112
0.0603286
0.0609976
0.0621588
0.0212856
0.00846501
0.00769664
0.015843
0.0442728
0.0642867
0.0625715
0.0624157
0.0639175
0.0439436
0.0158369
0.00770599
0.0158264
0.0647579
0.0589109
0.0600021
0.0604484
0.0603554
0.0598681
0.0589359
0.0641578
0.0158403
0.0441076
0.0587513
0.0596685
0.0603066
0.0606809
0.0607668
0.0604969
0.0599245
0.0592079
0.043918
0.0642099
0.0599325
0.0602461
0.0607054
0.0612321
0.0614707
0.0612885
0.060788
0.0602175
0.0641765
0.0624709
0.0603221
0.0606043
0.0611866
0.0617765
0.0620844
0.0618793
0.0612553
0.0606995
0.0626679
0.0625008
0.0603664
0.0607497
0.061463
0.0620648
0.062261
0.0619733
0.0613257
0.060768
0.0628128
0.0642866
0.0600771
0.0606466
0.0613431
0.0618868
0.0619644
0.0615821
0.0609861
0.0603654
0.0645909
0.0439769
0.0592635
0.0600878
0.0608851
0.0613443
0.0613644
0.0609614
0.0602259
0.0593912
0.0439855
0.0158392
0.0642055
0.0591603
0.0602974
0.0608264
0.0608258
0.0602985
0.0591783
0.0643144
0.0158406
0.0077061
0.0158332
0.0438825
0.0643736
0.0628434
0.0628437
0.0643676
0.0439266
0.0158366
0.00770633
0.007248
0.0126812
0.029491
0.0575618
0.0644728
0.0645983
0.0577371
0.0294356
0.0126932
0.00725807
0.012675
0.0529456
0.0593439
0.059973
0.0605627
0.0606162
0.0602156
0.0598459
0.0524979
0.0126957
0.0294475
0.059275
0.0596396
0.0605101
0.0610246
0.0612138
0.0609913
0.0603249
0.0602288
0.0294621
0.0577758
0.0600516
0.0605326
0.0611256
0.0617596
0.0620377
0.0618434
0.0613486
0.0607365
0.0582143
0.0648475
0.0606586
0.0611104
0.0617911
0.0624514
0.0627395
0.0624752
0.0618432
0.0612358
0.0655569
0.0651655
0.0608407
0.0613864
0.0621587
0.0627829
0.0629386
0.0625869
0.0619208
0.0612814
0.0656489
0.0581745
0.0605364
0.0612716
0.0620253
0.0625662
0.0626081
0.0621871
0.0615472
0.0608007
0.0582819
0.0294521
0.0601843
0.0605154
0.0614978
0.0619731
0.0619683
0.0615111
0.0605841
0.0602922
0.0294464
0.0126938
0.0524217
0.0601438
0.0607889
0.0613374
0.0613095
0.0607136
0.060066
0.0524087
0.0126947
0.00725839
0.0126919
0.0294285
0.0582269
0.0656532
0.0655714
0.0580804
0.0294326
0.0126935
0.00725841
0.00699045
0.0107905
0.0213042
0.0408281
0.0554299
0.0555635
0.0408741
0.0212928
0.0108044
0.00699897
0.0107886
0.0368723
0.0606397
0.0601783
0.0607987
0.0609563
0.0606879
0.0615406
0.0367183
0.0108058
0.0212847
0.0607593
0.0596044
0.06075
0.0613831
0.0616322
0.0614198
0.0605775
0.0621583
0.0213111
0.0409415
0.0604643
0.0608831
0.0615796
0.0622483
0.0625154
0.0623015
0.061804
0.061388
0.0410964
0.0559962
0.0611544
0.0616629
0.0623737
0.0630124
0.0632217
0.0629031
0.0622931
0.0617449
0.0564158
0.0561827
0.0613905
0.0620018
0.062766
0.0633232
0.0633904
0.0629835
0.0623302
0.0617241
0.0563493
0.0410401
0.0611124
0.0617954
0.0625741
0.0630473
0.0630207
0.0625662
0.0618895
0.0612664
0.041023
0.0213043
0.0619229
0.060745
0.0619423
0.0624114
0.0623639
0.0618427
0.0606904
0.0619505
0.021299
0.0108051
0.036704
0.061986
0.0613493
0.0617715
0.0617109
0.0611759
0.0617254
0.0366689
0.0108052
0.00699961
0.0108048
0.0212965
0.0410528
0.056342
0.0562419
0.0409806
0.0212948
0.0108051
0.00699932
0.00685279
0.0096309
0.0165235
0.0289454
0.039791
0.0398087
0.0289399
0.0165234
0.00964313
0.00685971
0.00963119
0.0265855
0.0623665
0.0607777
0.0612937
0.0615143
0.0614484
0.063408
0.0265312
0.00964411
0.0165151
0.0628344
0.0595304
0.0609895
0.0617448
0.0620187
0.0617542
0.0606492
0.0644254
0.0165345
0.0289845
0.0612852
0.0612029
0.0619969
0.0626565
0.06289
0.0626476
0.0620979
0.062299
0.029023
0.0400013
0.0618464
0.06214
0.0628367
0.0633975
0.0635101
0.0631581
0.0625755
0.0623222
0.0400449
0.0400195
0.062064
0.0624724
0.0631883
0.0636321
0.0636048
0.0631672
0.0625451
0.0622254
0.0399992
0.0290014
0.0619464
0.0621167
0.062916
0.0632979
0.0632023
0.0627308
0.0620138
0.0619528
0.0289822
0.0165313
0.0639337
0.0607451
0.062161
0.0626356
0.0625526
0.0619613
0.0605811
0.0637813
0.0165283
0.00964401
0.0265328
0.0641262
0.062135
0.062256
0.0621739
0.0618759
0.0635873
0.0265168
0.00964404
0.00686037
0.00964439
0.0165284
0.0290002
0.0400013
0.0399707
0.0289776
0.0165271
0.00964436
0.00686013
0.00679294
0.00890938
0.0135944
0.0217623
0.0288482
0.0288469
0.0217576
0.0136002
0.00892055
0.00679895
0.00891056
0.0202966
0.0602987
0.0620983
0.0623834
0.0625952
0.0627305
0.0605034
0.0202824
0.00892119
0.0135924
0.0610178
0.0596288
0.0613803
0.0622556
0.06249
0.0620625
0.0606526
0.0616714
0.0136076
0.0217787
0.0627718
0.0615781
0.0624907
0.0631078
0.0632727
0.0629577
0.0622575
0.0636036
0.0217953
0.0289156
0.0629539
0.0625833
0.0632528
0.0637056
0.0637156
0.0633307
0.062738
0.0631523
0.0289117
0.0289155
0.0630846
0.0628218
0.0634731
0.0637927
0.0636858
0.0632366
0.0626348
0.0629923
0.0288937
0.0217869
0.0632311
0.0622633
0.0630878
0.0633863
0.0632434
0.0627729
0.0619982
0.0630265
0.021777
0.0136066
0.0611373
0.0606344
0.0621885
0.0626993
0.0626052
0.0619465
0.0604041
0.0608153
0.0136054
0.00892156
0.0202882
0.0613195
0.0632895
0.0629929
0.0629155
0.0629928
0.060712
0.0202819
0.00892177
0.00679949
0.00892226
0.0136058
0.0217851
0.0288967
0.0288893
0.0217783
0.013605
0.00892216
0.00679952
0.00678645
0.00846145
0.011753
0.0173126
0.0220598
0.022058
0.017312
0.0117608
0.00847159
0.00679166
0.00846265
0.0163272
0.0492047
0.0636114
0.0640421
0.0641907
0.0639889
0.0487831
0.016331
0.00847173
0.011753
0.0495387
0.0598417
0.061738
0.0627483
0.0629051
0.0622361
0.060643
0.0493441
0.0117658
0.0173177
0.0642789
0.0618117
0.0629072
0.0634929
0.0635774