/*--------------------------------*- C++ -*----------------------------------*\
| =========                 |                                                 |
| \\      /  F ield         | OpenFOAM: The Open Source CFD Toolbox           |
|  \\    /   O peration     | Version:  2406                                  |
|   \\  /    A nd           | Website:  www.openfoam.com                      |
|    \\/     M anipulation  |                                                 |
\*---------------------------------------------------------------------------*/
FoamFile
{
    version     2.0;
    format      ascii;
    arch        "LSB;label=32;scalar=64";
    class       volScalarField;
    location    "100";
    object      turbulenceProperties:I;
}
// * * * * * * * * * * * * * * * * * * * * * * * * * * * * * * * * * * * * * //

dimensions      [0 0 0 0 0 0 0];

internalField   nonuniform List<scalar> 
25000
(
0.00496982
0.0048801
0.00468035
0.00463553
0.00461464
0.00461527
0.00463601
0.00467591
0.00488414
0.00499173
0.00488703
0.00484027
0.0046199
0.0044975
0.00443638
0.00443418
0.00448904
0.00460275
0.0048094
0.00487712
0.00468869
0.0046244
0.00444784
0.00433764
0.00428185
0.00427989
0.00433083
0.00443463
0.00460108
0.00466956
0.00464135
0.00450061
0.00433897
0.00422966
0.00417395
0.00417275
0.00422525
0.00433012
0.00448757
0.00462988
0.0046189
0.00444022
0.00428328
0.00417448
0.00411927
0.00411849
0.0041719
0.0042783
0.00443154
0.00460942
0.00461762
0.00443711
0.00428174
0.00417341
0.00411872
0.00411829
0.00417194
0.00427843
0.0044317
0.00460993
0.00463784
0.00449217
0.0043327
0.00422643
0.00417257
0.00417239
0.00422536
0.00433046
0.00448808
0.00463138
0.00467691
0.00460474
0.00443716
0.00433184
0.00427941
0.00427919
0.00433094
0.00443523
0.00460183
0.00467194
0.00488403
0.00481228
0.0046046
0.00448937
0.00443283
0.00443262
0.00448876
0.00460311
0.00481018
0.00488021
0.00499409
0.00487993
0.00467183
0.00463154
0.00461045
0.00461058
0.00463152
0.0046717
0.00488017
0.00499137
0.00570829
0.00566099
0.00549433
0.00545852
0.00544036
0.00543975
0.00546051
0.005501
0.00568773
0.0057629
0.00566947
0.00554825
0.00543596
0.00538897
0.00535835
0.0053583
0.0053882
0.00543697
0.0055436
0.00568072
0.00550734
0.00544685
0.00534683
0.00530334
0.0052812
0.00528167
0.00530331
0.0053418
0.00543402
0.00549722
0.00546753
0.0053969
0.00530751
0.00525768
0.00523284
0.0052334
0.00525724
0.0053028
0.00538789
0.00545824
0.00544741
0.00536542
0.00528532
0.0052347
0.00521085
0.00521076
0.00523354
0.00528177
0.00535774
0.00543777
0.00544541
0.00536361
0.00528579
0.00523541
0.00521166
0.00521137
0.005234
0.00528211
0.00535792
0.00543843
0.00546571
0.00539344
0.00530686
0.00526003
0.00523543
0.00523513
0.00525844
0.0053037
0.00538846
0.00546028
0.00550506
0.00543876
0.00534599
0.00530617
0.00528393
0.00528353
0.00530473
0.0053431
0.0054349
0.0055007
0.00568941
0.00554813
0.00544074
0.00539064
0.00535965
0.00535927
0.00538953
0.00543847
0.00554525
0.00568637
0.00576853
0.00568732
0.0055015
0.00546114
0.00543937
0.00543902
0.00545984
0.00549972
0.00568575
0.00576427
0.00535985
0.00524654
0.00516671
0.00510364
0.00506568
0.00506112
0.00509049
0.00515739
0.00527237
0.00543887
0.00525711
0.00511392
0.0050649
0.0050285
0.0050019
0.00500103
0.00502611
0.00506493
0.00510586
0.00526622
0.00518195
0.00507816
0.00499566
0.00495785
0.00493817
0.00493976
0.00496359
0.00499891
0.00506279
0.00515813
0.00511257
0.00503731
0.00496248
0.00492186
0.00489969
0.00490147
0.0049257
0.00496368
0.0050285
0.00509429
0.00507364
0.00500966
0.00494286
0.00490181
0.00488153
0.00488197
0.004902
0.0049409
0.00500338
0.0050652
0.00506875
0.00500741
0.00494439
0.00490374
0.00488304
0.00488283
0.00490254
0.00494118
0.00500325
0.00506549
0.00509755
0.00503166
0.00496744
0.0049288
0.00490425
0.0049039
0.00492716
0.00496447
0.0050283
0.00509544
0.00516306
0.00506557
0.00500316
0.00496738
0.00494321
0.00494273
0.00496577
0.00500045
0.00506291
0.00516085
0.00527557
0.00511024
0.00507058
0.00503131
0.00500522
0.00500469
0.0050298
0.00506811
0.00510817
0.00527326
0.00544726
0.00527493
0.00516326
0.00509739
0.00506684
0.00506622
0.00509536
0.00516061
0.00527314
0.0054434
0.00465244
0.00446698
0.0044318
0.00431897
0.00426589
0.00426077
0.00429084
0.00437561
0.00443398
0.00468391
0.0044806
0.00431161
0.00426458
0.00420903
0.00418344
0.00418429
0.00420898
0.00425922
0.00427698
0.00443263
0.00444709
0.00427865
0.00418421
0.00413556
0.0041122
0.00411435
0.00414623
0.00419791
0.00426032
0.00438516
0.00432693
0.00421728
0.00414006
0.00409574
0.00406915
0.0040709
0.00410143
0.00414835
0.00421633
0.00430392
0.00427445
0.00419123
0.00411661
0.00407104
0.00404666
0.00404716
0.00407271
0.00411905
0.00419287
0.0042741
0.00426944
0.00419057
0.00411882
0.00407299
0.00404821
0.0040485
0.0040736
0.00411939
0.00419231
0.00427345
0.0042984
0.00421427
0.00414991
0.00410451
0.00407509
0.0040751
0.00410422
0.00414942
0.00421483
0.00430247
0.00438076
0.00425909
0.00420211
0.00415216
0.00412148
0.00412114
0.00415088
0.00420019
0.00425887
0.00438452
0.00443668
0.00428059
0.00426805
0.00421884
0.00419456
0.00419394
0.00421692
0.00426493
0.00427918
0.00443803
0.00469479
0.0044424
0.0043904
0.00430641
0.00427539
0.00427458
0.00430351
0.00438596
0.00443923
0.00469231
0.00410664
0.00388122
0.00382111
0.00367742
0.00362899
0.00363168
0.00366218
0.00375398
0.00380118
0.00406145
0.00389697
0.00369234
0.00361667
0.0035392
0.00351584
0.00352011
0.00354787
0.00361982
0.00365503
0.00380649
0.00383215
0.00362864
0.00352495
0.00345735
0.00342301
0.00342294
0.00346475
0.00354413
0.0036233
0.00377093
0.00368064
0.00354302
0.00345948
0.00339874
0.00335902
0.003358
0.00339814
0.00346779
0.00355681
0.00367866
0.00363331
0.00351956
0.00342402
0.0033591
0.00332264
0.00332211
0.00335998
0.00342923
0.00353025
0.00364651
0.00363581
0.0035223
0.00342414
0.00335756
0.00332199
0.00332303
0.0033608
0.00342947
0.00352925
0.00364461
0.00366538
0.00354951
0.00346521
0.00339864
0.00336066
0.00336161
0.00340126
0.00346875
0.00355362
0.00367333
0.00375445
0.00361595
0.00354542
0.00346919
0.00342987
0.0034303
0.00346976
0.00354587
0.00361887
0.00376393
0.00379891
0.003654
0.00362739
0.00355639
0.00352996
0.00352987
0.00355559
0.00362509
0.00365419
0.00380529
0.00406996
0.00381093
0.00377117
0.00367742
0.0036459
0.00364566
0.0036754
0.00376678
0.00380796
0.00407076
0.00374534
0.00350924
0.00342025
0.00329733
0.0032742
0.00328746
0.00331294
0.0033923
0.00344011
0.00366644
0.00352453
0.00333127
0.0032465
0.003176
0.0031612
0.0031678
0.00319487
0.00327253
0.00332678
0.00345244
0.00342587
0.0032537
0.00317357
0.00310447
0.00306298
0.00305928
0.0031019
0.00319104
0.00327423
0.00341113
0.00329449
0.00317398
0.00310318
0.00303334
0.00298489
0.00298055
0.00302208
0.00310261
0.00319812
0.00332261
0.00327183
0.00315995
0.00306022
0.0029831
0.00293979
0.00293757
0.00298045
0.00306221
0.00317039
0.00329075
0.00328432
0.00316594
0.00305763
0.00297781
0.00293643
0.00293714
0.00298049
0.0030623
0.00316973
0.00328827
0.00331041
0.00319374
0.00310001
0.00302053
0.0029796
0.00298062
0.00302335
0.00310326
0.00319532
0.0033147
0.00338841
0.00326709
0.00319061
0.0031024
0.00306146
0.00306229
0.00310365
0.00319143
0.00326874
0.00339738
0.00343312
0.00332352
0.00327658
0.00319654
0.00316932
0.00316965
0.00319671
0.00327461
0.00332278
0.00344168
0.00366475
0.00344918
0.00340533
0.00331844
0.00328916
0.00328962
0.00331742
0.00340126
0.00344535
0.00366833
0.00350022
0.00330158
0.00321924
0.00313949
0.00314278
0.00316353
0.00318387
0.00324833
0.00329408
0.00345764
0.00332034
0.00317849
0.00311061
0.00306342
0.00305502
0.00306151
0.0030866
0.00315823
0.00322112
0.00331195
0.00322472
0.00311595
0.003071
0.0030117
0.00296867
0.00296396
0.00300113
0.00308214
0.00315559
0.00326492
0.00313574
0.00305988
0.00300908
0.00294019
0.00289378
0.00288978
0.00292487
0.00299811
0.00308203
0.00318368
0.00313807
0.00305241
0.00296499
0.00289185
0.00285373
0.00285138
0.00288799
0.00296249
0.00305526
0.00315412
0.00315652
0.00305787
0.00296153
0.0028869
0.00285047
0.00285044
0.00288709
0.00296221
0.00305524
0.00315227
0.00317816
0.00308331
0.00299804
0.00292308
0.00288749
0.00288742
0.00292348
0.00299792
0.0030805
0.00317628
0.00324468
0.00315184
0.00308086
0.00299792
0.00296197
0.00296243
0.00299826
0.00308017
0.00315036
0.00324835
0.00328763
0.00321673
0.00315758
0.00308069
0.0030545
0.00305503
0.0030814
0.00315607
0.00321467
0.00329335
0.00345046
0.00330229
0.00325586
0.00317876
0.0031527
0.00315334
0.00317851
0.00325184
0.0032972
0.00345201
0.00338393
0.00323198
0.00316725
0.00312214
0.00313729
0.00315596
0.0031713
0.00322259
0.00326489
0.00337922
0.00325256
0.003154
0.00310857
0.00307885
0.00306801
0.0030723
0.00309556
0.00315666
0.00321488
0.0032849
0.0031746
0.003114
0.00308839
0.00303232
0.00298897
0.00298647
0.00301926
0.0030884
0.00314804
0.0032322
0.00312012
0.00307665
0.00303098
0.00296151
0.00291982
0.00291906
0.0029494
0.00301311
0.00308413
0.00316209
0.00313245
0.00306663
0.00298734
0.00291947
0.00288759
0.00288631
0.00291686
0.00298217
0.00305947
0.0031364
0.0031466
0.00306822
0.00298517
0.00291799
0.00288658
0.00288583
0.00291557
0.00298175
0.00306037
0.00313584
0.00316311
0.00309054
0.00301592
0.00294863
0.00291774
0.00291664
0.00294649
0.00301265
0.00308533
0.00315811
0.00321903
0.00314934
0.00308683
0.00301367
0.00298281
0.00298291
0.00301347
0.00308584
0.00314689
0.00321886
0.00326001
0.00321247
0.00315195
0.00308438
0.00306001
0.0030609
0.00308664
0.00315307
0.00321164
0.00326419
0.00336628
0.00327292
0.00322397
0.00315852
0.00313606
0.00313734
0.00316077
0.00322353
0.00326954
0.0033674
0.00331999
0.00320333
0.00315833
0.0031352
0.00315026
0.00316202
0.00317498
0.00321583
0.00325037
0.00332871
0.00322615
0.00315646
0.0031285
0.00310726
0.00309315
0.00309715
0.00312039
0.00317184
0.00321707
0.00326649
0.00316866
0.00313541
0.00311365
0.00305738
0.00301819
0.00302144
0.00305251
0.00311164
0.00315831
0.00321752
0.00313691
0.00310723
0.00305721
0.00298896
0.0029545
0.00295924
0.00298795
0.00304423
0.00310535
0.00316247
0.00314693
0.00309203
0.00301717
0.002955
0.00292902
0.00293006
0.00295743
0.00301602
0.00308276
0.00314207
0.00315187
0.00309079
0.00301884
0.00295856
0.00293097
0.00293027
0.00295574
0.00301519
0.00308406
0.00314297
0.00316562
0.003112
0.00304672
0.00298693
0.00295911
0.00295744
0.00298359
0.00304278
0.00310807
0.00316348
0.00321327
0.00316247
0.00310848
0.00304468
0.00301746
0.00301729
0.00304427
0.00310791
0.0031608
0.00321262
0.00325026
0.00321706
0.00316378
0.00310661
0.0030841
0.00308516
0.00310987
0.00316744
0.00321814
0.00325323
0.00331863
0.00325814
0.003213
0.00316108
0.00314253
0.00314442
0.00316626
0.00321792
0.00325975
0.00332151
0.00327241
0.00317304
0.00314469
0.00313499
0.00314423
0.00314762
0.00316022
0.00319597
0.00322107
0.00327476
0.00319672
0.00314247
0.0031274
0.00311008
0.0030946
0.00309868
0.00312217
0.00316796
0.00319961
0.00322885
0.00315522
0.00313397
0.00311122
0.00305582
0.00302289
0.0030313
0.00306118
0.00311333
0.0031503
0.00318847
0.00313576
0.00310921
0.00305579
0.00299194
0.00296465
0.0029738
0.0030017
0.00305224
0.00310595
0.00314714
0.00313809
0.0030903
0.00302075
0.00296514
0.00294388
0.002947
0.00297253
0.00302584
0.00308508
0.00313091
0.00313513
0.00308808
0.00302572
0.00297218
0.00294767
0.00294752
0.00297065
0.00302479
0.00308646
0.0031325
0.00314882
0.0031098
0.0030523
0.00299919
0.00297366
0.00297224
0.00299655
0.00305016
0.00310938
0.00315162
0.00319122
0.00315576
0.00310841
0.00305174
0.00302689
0.00302689
0.00305198
0.00310922
0.0031554
0.0031912
0.00322239
0.00320128
0.00315724
0.00310767
0.00308637
0.00308752
0.00311159
0.00316258
0.00320339
0.00322367
0.0032681
0.00322663
0.00318882
0.00314754
0.00313125
0.00313357
0.00315471
0.00319787
0.00323208
0.00327167
0.00320789
0.00312295
0.00311247
0.00311334
0.00311795
0.00311585
0.00312958
0.00316342
0.00317873
0.00321294
0.00313999
0.00310629
0.00310513
0.00309255
0.00307765
0.00308024
0.0031024
0.00314532
0.00316645
0.00317406
0.00311505
0.00310841
0.00308943
0.00303835
0.00301097
0.00302098
0.00304775
0.00309477
0.0031253
0.00314524
0.00310664
0.00308715
0.00303666
0.00297966
0.00295775
0.00296826
0.00299405
0.00303952
0.00308732
0.00311569
0.00310596
0.00306718
0.00300546
0.00295689
0.00293911
0.00294323
0.00296683
0.00301528
0.00306829
0.00310272
0.00310137
0.00306547
0.00301128
0.00296413
0.00294262
0.00294346
0.00296516
0.00301455
0.00306983
0.0031047
0.00311711
0.00308798
0.00303649
0.00298919
0.00296614
0.00296586
0.00298943
0.00303826
0.00309164
0.0031229
0.00315554
0.00313153
0.00308912
0.00303791
0.00301502
0.00301564
0.00303985
0.00309206
0.00313259
0.003155
0.00317898
0.00316902
0.00313358
0.00308942
0.00306905
0.00307009
0.0030933
0.00313938
0.00317118
0.00317743
0.00321184
0.00317962
0.00315103
0.00311799
0.00310284
0.00310482
0.00312492
0.003161
0.00318616
0.0032135
0.00314088
0.00306534
0.00306906
0.00307749
0.00307984
0.00307561
0.00309103
0.00312469
0.00313265
0.00315623
0.00307207
0.0030644
0.00307659
0.00306832
0.00305282
0.0030515
0.00307095
0.00311278
0.00312789
0.00311491
0.00306084
0.00307591
0.0030648
0.00301855
0.00299297
0.00300004
0.00302186
0.00306528
0.00309251
0.00309663
0.00306235
0.00305825
0.00301495
0.00296414
0.00294384
0.00295188
0.00297415
0.00301543
0.00305878
0.00307585
0.00306351
0.00303782
0.0029846
0.00294142
0.00292472
0.00292811
0.00294932
0.0029935
0.00304122
0.00306478
0.00306206
0.00303637
0.00298812
0.00294537
0.00292578
0.00292732
0.00294807
0.00299337
0.00304271
0.00306684
0.00307982
0.00305808
0.00301079
0.00296739
0.00294622
0.0029473
0.00297082
0.00301573
0.0030634
0.00308446
0.00311342
0.00309854
0.00306012
0.00301287
0.00299125
0.00299251
0.00301653
0.00306474
0.00310029
0.00311101
0.00312802
0.00312837
0.00310046
0.00306032
0.00304057
0.00304125
0.00306356
0.00310591
0.00313076
0.00312438
0.0031577
0.00312412
0.00310498
0.0030786
0.003064
0.00306497
0.00308347
0.00311379
0.0031311
0.00315783
0.00309628
0.00301491
0.00302435
0.0030346
0.00303394
0.00302851
0.00304422
0.00307779
0.0030828
0.00311579
0.00300904
0.00302422
0.00304545
0.00303827
0.00301973
0.00301344
0.00302943
0.00307013
0.00308185
0.0030548
0.00300583
0.00304153
0.00303729
0.00299423
0.00296735
0.0029693
0.00298625
0.00302709
0.00305213
0.00304382
0.00301374
0.003026
0.00299006
0.00294359
0.00292228
0.00292612
0.00294483
0.00298304
0.00302235
0.00302922
0.00301751
0.00300519
0.00295935
0.00291948
0.00290225
0.00290405
0.00292293
0.0029636
0.00300639
0.00301921
0.00301995
0.00300356
0.0029598
0.0029197
0.00290086
0.00290255
0.00292253
0.0029643
0.00300782
0.00302123
0.00303781
0.00302301
0.00297977
0.00293909
0.00291883
0.00292075
0.00294416
0.00298557
0.00302737
0.00303843
0.0030653
0.003059
0.00302531
0.00298168
0.00296071
0.00296204
0.00298556
0.00302999
0.00306043
0.00306103
0.0030718
0.0030811
0.00306062
0.00302463
0.0030055
0.00300538
0.003026
0.00306444
0.00308345
0.0030683
0.00311547
0.00306518
0.0030534
0.00303272
0.00301854
0.00301801
0.00303388
0.00305914
0.00307157
0.00311571
0.00307913
0.0029745
0.00298277
0.00298804
0.00298248
0.00297596
0.00299087
0.003024
0.00303248
0.0030967
0.00296156
0.00299362
0.00301525
0.00300356
0.00298131
0.00297189
0.00298567
0.00302502
0.00303536
0.00299971
0.00296097
0.00301303
0.00300869
0.00296531
0.00293682
0.00293546
0.00294997
0.00298929
0.00301253
0.00299238
0.00297058
0.0029962
0.00296358
0.00291889
0.00289627
0.00289727
0.00291423
0.00295085
0.00298652
0.00298214
0.00297414
0.00297459
0.00293366
0.00289508
0.00287687
0.00287745
0.00289486
0.00293313
0.00297148
0.0029728
0.00297828
0.00297247
0.00293287
0.00289398
0.00287492
0.00287618
0.00289531
0.00293417
0.0029723
0.00297471
0.00299455
0.00298913
0.00295113
0.00291251
0.00289204
0.00289367
0.00291638
0.00295445
0.00299027
0.00299114
0.00301629
0.00301974
0.00299263
0.00295258
0.00293154
0.002932
0.00295427
0.00299456
0.00301944
0.00301084
0.00301985
0.0030346
0.00302186
0.00299009
0.00297143
0.00297007
0.00298825
0.00302229
0.00303596
0.00301678
0.00309531
0.00300949
0.00300205
0.00298658
0.00297321
0.00297105
0.00298357
0.00300403
0.00301575
0.00309719
0.00309453
0.00295573
0.00295218
0.00294574
0.00293072
0.00292015
0.0029322
0.00296479
0.00298569
0.00309861
0.00293902
0.00297337
0.00298492
0.0029625
0.0029358
0.00292542
0.00293833
0.00297576
0.00298567
0.00295507
0.00293402
0.00298804
0.00297326
0.00292543
0.00289641
0.00289509
0.00291042
0.00294915
0.00297044
0.00294319
0.00293752
0.00296436
0.00292855
0.00288324
0.00286042
0.00286144
0.00287927
0.00291573
0.00294799
0.002934
0.00293341
0.00294066
0.00290128
0.00286257
0.00284379
0.00284424
0.00286157
0.00289871
0.00293326
0.00292414
0.00293384
0.002938
0.00290214
0.00286379
0.00284388
0.00284434
0.00286278
0.00289958
0.00293307
0.00292547
0.00294619
0.00295231
0.00292068
0.00288372
0.00286207
0.00286243
0.00288393
0.00291907
0.0029493
0.0029408
0.00296421
0.00297782
0.00295844
0.00292183
0.00290009
0.00289901
0.00291944
0.00295571
0.00297483
0.00295926
0.00297446
0.00298751
0.00298164
0.00295365
0.00293529
0.00293256
0.00294802
0.00297756
0.00298637
0.00297211
0.00309558
0.00296441
0.0029526
0.00293934
0.00292632
0.00292286
0.00293256
0.00295018
0.00296846
0.00309836
0.00308808
0.00295319
0.00292783
0.0029056
0.00287982
0.00286492
0.00287413
0.00290683
0.00295009
0.00307797
0.00293763
0.00295933
0.00295326
0.0029181
0.00288872
0.00288001
0.00289338
0.00292825
0.00293877
0.00292672
0.00292006
0.00296423
0.00293308
0.00287971
0.00285274
0.00285499
0.00287344
0.00291167
0.00293066
0.00290029
0.0029108
0.00293008
0.0028873
0.00284098
0.00282059
0.0028249
0.00284538
0.00288206
0.00291091
0.00288842
0.00289352
0.00290334
0.00286381
0.00282535
0.00280798
0.00281003
0.0028283
0.00286479
0.00289577
0.0028771
0.00288636
0.00290018
0.00286865
0.00283159
0.00281178
0.00281196
0.00282979
0.00286493
0.00289434
0.00287764
0.00289453
0.00291309
0.0028891
0.0028545
0.00283221
0.00283113
0.00285114
0.00288363
0.00290864
0.00289178
0.00291324
0.00293482
0.00292387
0.00289105
0.00286908
0.00286654
0.00288497
0.00291736
0.00293091
0.00291124
0.00294351
0.00294259
0.00294181
0.00291713
0.00289947
0.00289588
0.00290892
0.00293444
0.00293959
0.00294159
0.00307689
0.00293573
0.0029082
0.00289363
0.00288067
0.00287664
0.00288473
0.00290218
0.00293675
0.0030783
0.00294357
0.00297392
0.00291317
0.0028712
0.00283398
0.00281481
0.00282227
0.00285786
0.00293298
0.00291103
0.00296517
0.00295046
0.00292058
0.00287342
0.00284273
0.00283662
0.00285082
0.0028829
0.00289599
0.00292028
0.00291943
0.00293824
0.0028898
0.00283205
0.00280806
0.00281451
0.00283629
0.00287372
0.00289075
0.00286638
0.00288674
0.00289139
0.00284187
0.0027952
0.00277816
0.00278645
0.00280947
0.00284595
0.00287176
0.00284545
0.00285184
0.00286097
0.00282121
0.00278379
0.00276886
0.00277295
0.00279213
0.0028279
0.00285578
0.00283079
0.00283561
0.00285695
0.00282967
0.00279469
0.00277593
0.00277624
0.00279348
0.00282732
0.00285357
0.00283043
0.00284127
0.0028691
0.00285205
0.00282026
0.00279823
0.0027962
0.00281491
0.00284553
0.00286657
0.00284436
0.00286646
0.00288904
0.00288476
0.00285536
0.00283394
0.00283074
0.00284779
0.00287748
0.00288678
0.002869
0.00292963
0.00289946
0.00289957
0.0028768
0.00286017
0.00285681
0.00286879
0.00289195
0.0028965
0.00292873
0.00291165
0.00292661
0.0028701
0.00284844
0.00283443
0.00283113
0.00284054
0.00286331
0.00292538
0.00291131
0.00252955
0.00299642
0.00289671
0.00283414
0.00278912
0.00276961
0.0027791
0.00282206
0.00292677
0.00248436
0.00299658
0.00293275
0.00287936
0.00282506
0.00279611
0.00279382
0.00280952
0.0028392
0.00285752
0.00292485
0.00291477
0.0028999
0.00284089
0.00278332
0.00276358
0.00277371
0.00279778
0.00283373
0.00284902
0.00284097
0.0028539
0.00284324
0.00279246
0.0027486
0.00273578
0.00274727
0.00277125
0.0028063
0.00282911
0.00280476
0.00280474
0.00281173
0.00277445
0.00274024
0.00272878
0.00273465
0.00275371
0.00278792
0.00281279
0.00278559
0.00278386
0.00280847
0.00278549
0.00275398
0.00273762
0.00273852
0.00275491
0.0027873
0.00281085
0.00278487
0.00279139
0.00282115
0.00280913
0.0027806
0.00276032
0.0027583
0.00277605
0.00280531
0.00282335
0.0028004
0.00282924
0.00284141
0.00284069
0.00281408
0.00279427
0.00279156
0.002808
0.00283599
0.00284256
0.00283546
0.00292575
0.00285915
0.00285462
0.00283233
0.00281705
0.00281487
0.00282693
0.00284925
0.00285752
0.0029258
0.00248944
0.00292782
0.00283993
0.00280516
0.00278876
0.002787
0.00280032
0.00283428
0.0029248
0.00249058
0.0036975
0.00298227
0.00287477
0.00279385
0.00274688
0.00273254
0.00274918
0.00280406
0.00290104
0.00373207
0.00299333
0.00290479
0.00283181
0.00277594
0.00275102
0.00275332
0.00277153
0.00280037
0.00282764
0.00290756
0.00289968
0.00285162
0.00279115
0.00273806
0.00272255
0.00273466
0.00275941
0.00279351
0.00280795
0.00282544
0.00281143
0.00278988
0.00274443
0.00270632
0.0026972
0.00270952
0.00273218
0.00276478
0.0027852
0.00276949
0.00275581
0.00276024
0.00272848
0.00269931
0.00269104
0.00269712
0.00271452
0.00274644
0.00276891
0.00274482
0.00273741
0.00275946
0.00274032
0.00271281
0.00269917
0.00270046
0.00271562
0.00274644
0.00276801
0.00274416
0.00275194
0.00277368
0.00276373
0.00273797
0.00272017
0.00271892
0.0027362
0.00276461
0.00278071
0.00276333
0.00280653
0.00279552
0.00279448
0.00276936
0.00275163
0.00275037
0.00276718
0.00279446
0.00280021
0.0028132
0.00290021
0.00282454
0.00280918
0.0027857
0.0027717
0.00277143
0.00278475
0.00280812
0.00282552
0.00290037
0.00373342
0.00290466
0.00281872
0.00276653
0.00274621
0.00274643
0.00276617
0.00281649
0.0029022
0.0037393
0.00649273
0.00285836
0.00284803
0.00275386
0.00270819
0.00270275
0.00273028
0.00279598
0.00277332
0.00653022
0.0028778
0.00286589
0.00277895
0.00272586
0.00270565
0.00271236
0.00273325
0.0027629
0.00280131
0.00278717
0.00287192
0.00279465
0.00274071
0.00269548
0.00268332
0.00269533
0.00271908
0.00275083
0.00276517
0.00281231
0.00276475
0.00273383
0.0026989
0.00266848
0.00266161
0.00267197
0.00269123
0.00272061
0.00273888
0.00273938
0.0027101
0.00270922
0.00268523
0.00266185
0.00265539
0.00265962
0.00267391
0.00270301
0.0027235
0.00270902
0.0026994
0.00271221
0.00269645
0.00267259
0.00266088
0.0026617
0.00267517
0.00270417
0.00272404
0.00270859
0.00272362
0.00272794
0.00271804
0.0026941
0.0026784
0.00267809
0.00269499
0.0027225
0.00273723
0.00273293
0.00279186
0.00275166
0.0027473
0.00272267
0.00270682
0.00270721
0.00272455
0.00275142
0.0027582
0.00279626
0.00277048
0.00279405
0.00276384
0.00273792
0.00272494
0.00272629
0.00274092
0.00276655
0.00279698
0.0027711
0.0065286
0.00277668
0.00280168
0.0027343
0.00270878
0.0027106
0.00273772
0.00280294
0.00277553
0.00653281
0.00991615
0.00255252
0.00280462
0.00271744
0.00267592
0.00268057
0.00271927
0.00277843
0.00250113
0.00994603
0.0025861
0.00282297
0.00272994
0.00268086
0.00266532
0.0026756
0.00269882
0.00273134
0.00277823
0.0025237
0.00282534
0.00274229
0.00269687
0.00266067
0.00265065
0.00266083
0.00268221
0.00271132
0.00272782
0.00278706
0.00272409
0.0026855
0.00266239
0.00263937
0.00263257
0.00263868
0.0026534
0.00267954
0.00269681
0.00271701
0.00267618
0.00266766
0.00265127
0.00263229
0.00262524
0.00262557
0.00263598
0.00266246
0.00268201
0.00268254
0.00267521
0.00267427
0.00266082
0.00263864
0.0026268
0.00262581
0.0026371
0.00266428
0.00268325
0.00268201
0.00270847
0.00269064
0.002679
0.00265541
0.00264016
0.00263989
0.00265603
0.00268241
0.00269657
0.00271069
0.00277078
0.0027167
0.00270593
0.00268075
0.00266558
0.0026667
0.00268404
0.00271022
0.00272079
0.00276967
0.00250052
0.00276878
0.00272593
0.00269551
0.00268234
0.00268423
0.00269969
0.00272924
0.00277084
0.00249757
0.00994426
0.00250385
0.00277463
0.00271115
0.0026808
0.00268315
0.00271607
0.00277799
0.00250456
0.00994577
0.0138271
0.00300339
0.00271171
0.00268461
0.00264968
0.00266052
0.0027022
0.00270414
0.00305628
0.0138435
0.00303369
0.00276702
0.00268795
0.00263969
0.00262674
0.00263877
0.00266352
0.00270134
0.00273903
0.00306955
0.00272781
0.00269745
0.00265604
0.00262737
0.00261796
0.00262525
0.00264413
0.00267129
0.00269321
0.00270748
0.00268807
0.00264373
0.00262975
0.00261189
0.00260272
0.00260356
0.00261442
0.00263847
0.00265644
0.00269277
0.00265149
0.0026323
0.00262138
0.00260405
0.00259363
0.00258904
0.00259638
0.00262152
0.00264159
0.00265986
0.00265776
0.00264119
0.00262863
0.00260582
0.00259131
0.00258743
0.00259704
0.00262322
0.00264251
0.00265827
0.00269202
0.00265738
0.00264296
0.00261801
0.00260108
0.00259983
0.00261511
0.00264059
0.00265583
0.00268507
0.00269604
0.00268755
0.00266729
0.0026404
0.00262427
0.00262493
0.00264171
0.00266764
0.00268569
0.00268774
0.00305628
0.00273146
0.00269387
0.00265617
0.00264112
0.00264221
0.00265826
0.00269391
0.00272925
0.00305204
0.0138425
0.00306228
0.00269636
0.00268788
0.00265707
0.00265846
0.00269038
0.00269705
0.00305856
0.0138414
0.0180351
0.00489277
0.0025053
0.00263124
0.00261968
0.00263362
0.00265872
0.00252351
0.0049441
0.018037
0.00490988
0.00267201
0.00265899
0.00260846
0.00259611
0.00260795
0.00263335
0.00267738
0.00266024
0.00494503
0.00252197
0.00266801
0.00262496
0.00260068
0.00259081
0.0025949
0.00261125
0.00263715
0.00266769
0.00252886
0.00263617
0.00261422
0.00260439
0.0025888
0.00257604
0.00257211
0.0025803
0.0026032
0.00262419
0.00264917
0.00262639
0.00260588
0.00259718
0.00257906
0.00256402
0.00255499
0.00256066
0.00258556
0.00260775
0.00263458
0.0026359
0.00261416
0.00260113
0.00257625
0.002558
0.00255137
0.00256008
0.00258601
0.00260728
0.00263149
0.00265153
0.00262929
0.00261134
0.00258456
0.0025653
0.00256259
0.00257719
0.00260221
0.00262103
0.00263921
0.0025168
0.00266463
0.00263378
0.0026048
0.00258712
0.00258672
0.00260299
0.00262948
0.00265871
0.00250481
0.00493954
0.00265382
0.00266961
0.00262344
0.00260549
0.00260553
0.00262289
0.00266684
0.00264949
0.00493995
0.0180354
0.00494666
0.00251891
0.0026446
0.00263017
0.00263008
0.00264379
0.0025151
0.0049453
0.0180347
0.0223406
0.00735493
0.00244538
0.00253119
0.00256832
0.00257928
0.00255397
0.00248276
0.00737957
0.0223194
0.00736868
0.00250919
0.00264158
0.00258782
0.00257183
0.00258022
0.00260457
0.00265215
0.00250821
0.00737663
0.00246152
0.00264906
0.00260124
0.00257594
0.00256297
0.00256306
0.00257736
0.00260344
0.00264165
0.00249377
0.00253444
0.0025926
0.00257988
0.00256253
0.00254478
0.00253705
0.00254457
0.0025675
0.00259316
0.00254578
0.00257423
0.00258114
0.00256969
0.00254826
0.00252804
0.00251625
0.00252255
0.00254845
0.00257391
0.00257665
0.00258011
0.00258502
0.00256871
0.00254088
0.00251884
0.0025107
0.00252037
0.00254715
0.00257183
0.00257173
0.00254418
0.00259895
0.00257571
0.00254678
0.00252532
0.00252192
0.00253686
0.00256245
0.0025875
0.00253176
0.00247324
0.00263854
0.00259856
0.00256652
0.00254739
0.00254644
0.0025631
0.00259238
0.00263228
0.00246832
0.00737457
0.00250177
0.00264338
0.00259078
0.00256958
0.00256922
0.00258955
0.00264066
0.00249784
0.00737458
0.0223185
0.00738201
0.00248756
0.00253979
0.00257057
0.00256984
0.00253749
0.00247962
0.00737974
0.0223168
0.0265525
0.0102039
0.00346924
0.00239231
0.00246301
0.0024692
0.00240624
0.00349571
0.0102108
0.0265151
0.010218
0.00237257
0.00262235
0.00257445
0.00255404
0.00255799
0.00258018
0.0026209
0.00239524
0.0102064
0.00348238
0.00262876
0.00258574
0.00255558
0.00253883
0.00253527
0.0025476
0.00257498
0.00260961
0.00349772
0.00239513
0.00257723
0.00255807
0.00253688
0.00251483
0.00250509
0.00251285
0.00253554
0.00256552
0.00239668
0.00246699
0.00255937
0.00254204
0.00251669
0.00249275
0.00248041
0.00248861
0.00251518
0.00254369
0.00245944
0.0024659
0.00255761
0.00253604
0.00250544
0.0024812
0.0024734
0.00248486
0.00251231
0.00254083
0.00245378
0.00239252
0.00257147
0.00254145
0.00251065
0.00248831
0.0024852
0.00250093
0.00252736
0.00255926
0.00238132
0.00349304
0.00260717
0.00256803
0.00253144
0.00251152
0.0025107
0.00252829
0.00256217
0.00260161
0.00349242
0.0102072
0.00239351
0.00261105
0.00256193
0.00253834
0.00253836
0.00256189
0.00261026
0.00238948
0.0102062
0.0265155
0.0102137
0.00350073
0.00238933
0.00245258
0.00245257
0.00238956
0.0034972
0.0102111
0.0265132
0.0305538
0.0133607
0.00522675
0.00265748
0.00237607
0.00237149
0.00264957
0.00523756
0.0133507
0.0305008
0.0133728
0.00288841
0.00259089
0.00256626
0.0025404
0.00253817
0.00255589
0.0025689
0.00291357
0.0133447
0.00523524
0.00259327
0.00257809
0.00253818
0.00251564
0.00250789
0.00251821
0.0025491
0.00255324
0.00523252
0.00264766
0.0025627
0.00253715
0.00251036
0.00248421
0.00247309
0.00248133
0.00250369
0.00253429
0.00262796
0.00236236
0.00253638
0.00251212
0.00248295
0.00245664
0.00244538
0.00245584
0.0024825
0.00251269
0.00233696
0.00235091
0.00252891
0.00250091
0.00246833
0.00244371
0.00243767
0.00245148
0.0024794
0.00251083
0.00233369
0.00262972
0.00254264
0.00250685
0.00247409
0.00245227
0.00245064
0.00246767
0.00249565
0.00253164
0.00262493
0.00523436
0.00255515
0.00254113
0.00249756
0.00247728
0.00247747
0.00249702
0.00253825
0.0025506
0.0052354
0.0133472
0.00291789
0.00255628
0.00253192
0.00250849
0.00250962
0.00253505
0.00255958
0.00291861
0.0133457
0.0305014
0.0133532
0.00523912
0.00262744
0.00233356
0.00233646
0.00263405
0.00523827
0.0133504
0.0304989
0.0342614
0.0167082
0.00734838
0.00373821
0.00275006
0.0027435
0.00373422
0.00735369
0.0166876
0.0342046
0.0167185
0.00414491
0.00252237
0.00254758
0.00252155
0.00251503
0.00252614
0.00248527
0.00416283
0.0166809
0.00735693
0.00251689
0.00257064
0.00251959
0.00249234
0.00248228
0.00249215
0.00252962
0.0024611
0.00734633
0.00372798
0.00253532
0.00251399
0.00248307
0.00245586
0.00244538
0.00245438
0.00247679
0.00249761
0.00371403
0.00272228
0.00250686
0.00248103
0.00245091
0.00242587
0.00241786
0.00243035
0.00245605
0.00248306
0.00270213
0.00271329
0.00249733
0.00246755
0.00243565
0.00241399
0.00241143
0.00242726
0.00245459
0.0024839
0.00270532
0.00371912
0.00250886
0.00247714
0.00244371
0.00242478
0.00242581
0.00244402
0.00247338
0.00250257
0.00372068
0.00734895
0.00247046
0.00252268
0.00247118
0.00245136
0.00245322