/*--------------------------------*- C++ -*----------------------------------*\
| =========                 |                                                 |
| \\      /  F ield         | OpenFOAM: The Open Source CFD Toolbox           |
|  \\    /   O peration     | Version:  2406                                  |
|   \\  /    A nd           | Website:  www.openfoam.com                      |
|    \\/     M anipulation  |                                                 |
\*---------------------------------------------------------------------------*/
FoamFile
{
    version     2.0;
    format      ascii;
    arch        "LSB;label=32;scalar=64";
    class       volVectorField;
    location    "100";
    object      U;
}
// * * * * * * * * * * * * * * * * * * * * * * * * * * * * * * * * * * * * * //

dimensions      [0 1 -1 0 0 0 0];

internalField   nonuniform List<vector> 
25000
(
(0.00543964 0.00549315 1.00331)
(0.0038405 0.00495331 1.00306)
(0.002711 0.0046722 1.00287)
(0.00162901 0.00451315 1.00274)
(0.000576184 0.00442822 1.00267)
(-0.000465001 0.00441967 1.00266)
(-0.00151081 0.00448141 1.00272)
(-0.00257692 0.00460684 1.00284)
(-0.00368393 0.00482387 1.00302)
(-0.0053162 0.00532638 1.00326)
(0.00487685 0.00386915 1.00306)
(0.00361692 0.00366377 1.00277)
(0.00254654 0.00350523 1.00258)
(0.00152939 0.00340042 1.00244)
(0.000534787 0.00334222 1.00238)
(-0.000450362 0.00333093 1.00237)
(-0.00144451 0.00336292 1.00243)
(-0.00246036 0.00343567 1.00256)
(-0.00353005 0.00354885 1.00275)
(-0.0048131 0.00370466 1.00302)
(0.00463869 0.002707 1.00286)
(0.00346645 0.0025657 1.00257)
(0.00243254 0.0024572 1.00237)
(0.00145426 0.00237806 1.00224)
(0.000502124 0.0023337 1.00217)
(-0.00044132 0.00232377 1.00217)
(-0.00139573 0.00234769 1.00223)
(-0.00237739 0.00240397 1.00236)
(-0.00341687 0.00248825 1.00256)
(-0.00459474 0.0026078 1.00284)
(0.00449579 0.00161649 1.00274)
(0.00337507 0.0015344 1.00244)
(0.00235658 0.00146698 1.00224)
(0.00140111 0.00141588 1.00211)
(0.000478245 0.001386 1.00204)
(-0.000435082 0.0013785 1.00204)
(-0.00136102 0.00139335 1.0021)
(-0.00232058 0.00142934 1.00223)
(-0.00334235 0.00148159 1.00243)
(-0.00446778 0.00155237 1.00272)
(0.00442344 0.000563846 1.00267)
(0.00332604 0.000532895 1.00238)
(0.0023169 0.000507336 1.00217)
(0.00137281 0.000486795 1.00204)
(0.000464198 0.000473511 1.00198)
(-0.00043369 0.000467963 1.00197)
(-0.00134496 0.00047062 1.00204)
(-0.00229317 0.000480943 1.00216)
(-0.00330566 0.000497041 1.00237)
(-0.0044024 0.000519549 1.00266)
(0.0044175 -0.000475572 1.00267)
(0.00332204 -0.000454572 1.00238)
(0.00231198 -0.000439956 1.00217)
(0.00136748 -0.000430351 1.00204)
(0.000459361 -0.00042756 1.00197)
(-0.000437914 -0.000431389 1.00197)
(-0.00134826 -0.000441861 1.00204)
(-0.00229578 -0.000458257 1.00216)
(-0.00330753 -0.000478809 1.00237)
(-0.00440376 -0.000504541 1.00266)
(0.00448327 -0.00151925 1.00272)
(0.00335794 -0.00144891 1.00244)
(0.00233955 -0.00139627 1.00223)
(0.00138491 -0.00135881 1.0021)
(0.000463135 -0.00134108 1.00204)
(-0.00044798 -0.00134366 1.00204)
(-0.00137142 -0.00136659 1.0021)
(-0.00232824 -0.00140839 1.00223)
(-0.00334782 -0.00146486 1.00243)
(-0.00447181 -0.0015385 1.00272)
(0.00460933 -0.00258397 1.00284)
(0.00343396 -0.00246511 1.00256)
(0.00239867 -0.00237926 1.00236)
(0.00142288 -0.00232062 1.00223)
(0.000474841 -0.00229152 1.00217)
(-0.000463831 -0.00229337 1.00217)
(-0.00141304 -0.00232501 1.00223)
(-0.00239019 -0.00238682 1.00236)
(-0.00342591 -0.0024746 1.00256)
(-0.00460122 -0.00259629 1.00284)
(0.00482766 -0.00368977 1.00302)
(0.00354841 -0.00353519 1.00275)
(0.00248474 -0.00342072 1.00256)
(0.00147688 -0.00334448 1.00243)
(0.000492175 -0.0033066 1.00237)
(-0.000483352 -0.00330729 1.00237)
(-0.00146892 -0.00334665 1.00243)
(-0.00247801 -0.00342401 1.00256)
(-0.00354214 -0.00353981 1.00275)
(-0.0048216 -0.00369689 1.00302)
(0.0053281 -0.00532091 1.00326)
(0.00370428 -0.00481922 1.00302)
(0.00260548 -0.00459971 1.00284)
(0.00154912 -0.0044717 1.00272)
(0.000516054 -0.00440509 1.00266)
(-0.000507984 -0.00440547 1.00266)
(-0.0015417 -0.00447244 1.00272)
(-0.00259893 -0.00460078 1.00284)
(-0.003699 -0.00481997 1.00302)
(-0.00532527 -0.00532338 1.00326)
(0.00712456 0.007217 1.01917)
(0.00510044 0.00645478 1.01822)
(0.00359443 0.00643965 1.01751)
(0.00216993 0.00639309 1.01702)
(0.000760578 0.00635952 1.01677)
(-0.000639719 0.00635627 1.01676)
(-0.00203911 0.00637553 1.01698)
(-0.00346125 0.00640289 1.01744)
(-0.00496127 0.00637149 1.01813)
(-0.00709978 0.00712329 1.01905)
(0.00636154 0.00515566 1.01822)
(0.00492292 0.00499861 1.01716)
(0.00361388 0.0049767 1.01638)
(0.00220125 0.00497743 1.01587)
(0.000768128 0.00497622 1.01561)
(-0.000666703 0.0049671 1.0156)
(-0.00210217 0.00494305 1.01584)
(-0.0035241 0.00490606 1.01634)
(-0.00485049 0.00488541 1.0171)
(-0.00635025 0.00499974 1.01813)
(0.00639604 0.00361027 1.0175)
(0.00491296 0.0036579 1.01639)
(0.00358216 0.00363465 1.01557)
(0.00218383 0.00361098 1.01503)
(0.000756031 0.00359571 1.01476)
(-0.000680036 0.00358436 1.01475)
(-0.00211563 0.00357551 1.01501)
(-0.00352684 0.00357124 1.01554)
(-0.00487146 0.00357005 1.01634)
(-0.00637967 0.00351095 1.01744)
(0.00636902 0.00217033 1.01702)
(0.00493288 0.00222304 1.01587)
(0.00356471 0.00221827 1.01503)
(0.00216385 0.00220184 1.01448)
(0.000741764 0.00218747 1.0142)
(-0.000688959 0.00217713 1.0142)
(-0.00211913 0.00217098 1.01446)
(-0.00353105 0.00216899 1.01501)
(-0.00490747 0.00215869 1.01584)
(-0.00635175 0.00209917 1.01698)
(0.00635021 0.000758433 1.01677)
(0.00494439 0.000778488 1.01561)
(0.00355724 0.000777478 1.01476)
(0.00215244 0.000769133 1.0142)
(0.000731056 0.000759868 1.01393)
(-0.000697186 0.000751378 1.01392)
(-0.00212432 0.000745067 1.01419)
(-0.00353715 0.000740805 1.01474)
(-0.00492869 0.00073386 1.01559)
(-0.00633054 0.000710897 1.01674)
(0.00634933 -0.000642198 1.01676)
(0.00494519 -0.000661311 1.0156)
(0.00355414 -0.000666167 1.01476)
(0.00214599 -0.000669171 1.0142)
(0.000723929 -0.000674835 1.01392)
(-0.000703898 -0.000680749 1.01392)
(-0.00212965 -0.000686516 1.01419)
(-0.00354128 -0.00069162 1.01474)
(-0.00493149 -0.000691368 1.01559)
(-0.00633202 -0.000672775 1.01674)
(0.00637493 -0.00204118 1.01699)
(0.00492638 -0.00209872 1.01585)
(0.0035509 -0.00210662 1.01502)
(0.00214435 -0.00210554 1.01447)
(0.000719647 -0.00210772 1.0142)
(-0.000708872 -0.00211169 1.01419)
(-0.00213539 -0.00211691 1.01446)
(-0.00354298 -0.00212322 1.01501)
(-0.00491552 -0.0021188 1.01584)
(-0.00635615 -0.00206279 1.01698)
(0.00640201 -0.00346289 1.01746)
(0.00489356 -0.0035232 1.01635)
(0.00355078 -0.00352205 1.01555)
(0.0021456 -0.00352357 1.01501)
(0.000717872 -0.00352687 1.01475)
(-0.000712971 -0.00352964 1.01475)
(-0.00214138 -0.00352988 1.01501)
(-0.00354593 -0.0035324 1.01554)
(-0.00488433 -0.00353539 1.01634)
(-0.00638672 -0.00347842 1.01744)
(0.00637092 -0.00496274 1.01815)
(0.0048734 -0.00485166 1.01711)
(0.00355167 -0.00487147 1.01635)
(0.00213784 -0.00490533 1.01584)
(0.000712868 -0.00492512 1.01559)
(-0.000711066 -0.00492631 1.01559)
(-0.00213613 -0.00490896 1.01584)
(-0.00354917 -0.00487654 1.01634)
(-0.00486728 -0.00485854 1.0171)
(-0.00635961 -0.00497371 1.01814)
(0.00711709 -0.00710132 1.01906)
(0.00498655 -0.00635313 1.01815)
(0.00349353 -0.00638169 1.01745)
(0.00207985 -0.00635342 1.01698)
(0.000691418 -0.00633145 1.01675)
(-0.000691232 -0.00633241 1.01675)
(-0.0020792 -0.00635548 1.01698)
(-0.00349156 -0.00638473 1.01744)
(-0.00498275 -0.00635595 1.01814)
(-0.00711235 -0.00710772 1.01905)
(0.0052866 0.00538013 1.0353)
(0.00386737 0.00479695 1.03417)
(0.00268128 0.00500331 1.03331)
(0.00159846 0.00501487 1.03273)
(0.000554661 0.00503602 1.03242)
(-0.000460055 0.00503859 1.03241)
(-0.0014871 0.00501688 1.03268)
(-0.00254232 0.00499585 1.03323)
(-0.00372353 0.00474796 1.03405)
(-0.00527926 0.00531782 1.03517)
(0.00471549 0.00393079 1.03416)
(0.00372856 0.00381191 1.0329)
(0.00277155 0.00384663 1.03195)
(0.00168542 0.00388922 1.0313)
(0.000595877 0.00392478 1.03098)
(-0.000492785 0.00392541 1.03096)
(-0.00158224 0.00388633 1.03127)
(-0.00267905 0.00381796 1.03189)
(-0.00366597 0.00372128 1.03282)
(-0.00471521 0.0037836 1.03406)
(0.00496881 0.00270665 1.03331)
(0.00377813 0.00282572 1.03195)
(0.00277689 0.00283989 1.03093)
(0.00169682 0.00284698 1.03025)
(0.000599184 0.00285014 1.0299)
(-0.000504872 0.00284316 1.02989)
(-0.00161304 0.00282354 1.03022)
(-0.00272448 0.00279047 1.03089)
(-0.0037634 0.00274578 1.03189)
(-0.00496135 0.00261211 1.03322)
(0.00499472 0.0016125 1.03273)
(0.00384028 0.00171836 1.03131)
(0.00279097 0.00174302 1.03025)
(0.00169918 0.00174862 1.02954)
(0.000592742 0.00174454 1.02919)
(-0.000520853 0.00173342 1.02918)
(-0.00164004 0.00171429 1.02953)
(-0.00275844 0.00168777 1.03022)
(-0.00383282 0.00165696 1.03126)
(-0.00498308 0.00156096 1.03267)
(0.00502567 0.000567312 1.03243)
(0.00388747 0.000618358 1.03098)
(0.00280167 0.000632256 1.02991)
(0.00169775 0.000631862 1.02919)
(0.000583651 0.000624182 1.02883)
(-0.000535616 0.000613303 1.02882)
(-0.00165926 0.000600513 1.02918)
(-0.00277853 0.000586837 1.02988)
(-0.00387432 0.00057378 1.03095)
(-0.00500578 0.000534906 1.03239)
(0.00502904 -0.000450757 1.03242)
(0.00389655 -0.000477337 1.03097)
(0.00280295 -0.000480908 1.0299)
(0.0016909 -0.000490655 1.02918)
(0.000574084 -0.000502529 1.02883)
(-0.000544672 -0.000510725 1.02882)
(-0.00166659 -0.000514041 1.02917)
(-0.00278443 -0.000513274 1.02988)
(-0.00387839 -0.000509931 1.03095)
(-0.00500729 -0.000477559 1.03239)
(0.00501142 -0.00148026 1.03269)
(0.00386259 -0.00157074 1.03128)
(0.00278929 -0.0015957 1.03023)
(0.00167654 -0.00161792 1.02953)
(0.000563754 -0.00163373 1.02918)
(-0.00054714 -0.00163949 1.02918)
(-0.00166186 -0.00163414 1.02952)
(-0.00277506 -0.00161842 1.03022)
(-0.00384438 -0.00159586 1.03126)
(-0.00498766 -0.00150497 1.03267)
(0.00498964 -0.00253675 1.03324)
(0.00379778 -0.00267111 1.0319)
(0.00276044 -0.00271313 1.0309)
(0.00165361 -0.00274421 1.03023)
(0.000552774 -0.00276161 1.02989)
(-0.000545136 -0.00276588 1.02989)
(-0.00164578 -0.00275492 1.03022)
(-0.00275027 -0.00272948 1.03089)
(-0.00378147 -0.00269024 1.03189)
(-0.00496884 -0.00255958 1.03322)
(0.00474179 -0.00371828 1.03407)
(0.00370114 -0.00366049 1.03283)
(0.00271733 -0.00375736 1.0319)
(0.00162507 -0.00382549 1.03127)
(0.000541626 -0.0038661 1.03096)
(-0.000540025 -0.00386882 1.03095)
(-0.00162234 -0.00383347 1.03126)
(-0.00271135 -0.00376919 1.03189)
(-0.0036892 -0.00367559 1.03282)
(-0.0047262 -0.00373916 1.03406)
(0.00530762 -0.00527494 1.03518)
(0.00376131 -0.00471099 1.03407)
(0.00258342 -0.0049575 1.03323)
(0.00152954 -0.00498038 1.03268)
(0.000503644 -0.00500378 1.0324)
(-0.000506807 -0.00500597 1.03239)
(-0.00153083 -0.00498623 1.03267)
(-0.00258041 -0.00496666 1.03322)
(-0.00375354 -0.00472196 1.03406)
(-0.00529787 -0.0052911 1.03517)
(0.00358204 0.00366986 1.04618)
(0.00271573 0.00340334 1.04508)
(0.00179343 0.00369124 1.04425)
(0.00103676 0.00373693 1.0437)
(0.000330752 0.00380876 1.04341)
(-0.000345101 0.00381592 1.0434)
(-0.0010607 0.00375709 1.04365)
(-0.00178267 0.00371523 1.04417)
(-0.00264352 0.00337819 1.04497)
(-0.00355107 0.00360838 1.04606)
(0.00332747 0.00278444 1.04508)
(0.0026294 0.00271442 1.04387)
(0.001914 0.00280593 1.04294)
(0.00114907 0.00288688 1.04232)
(0.000392983 0.00295309 1.042)
(-0.00037167 0.00296359 1.04199)
(-0.00114097 0.00292562 1.04228)
(-0.00192649 0.0028652 1.04288)
(-0.00265661 0.00273104 1.04378)
(-0.003329 0.00272171 1.04497)
(0.00364918 0.00183155 1.04425)
(0.00273391 0.00197449 1.04294)
(0.00199053 0.00205852 1.04195)
(0.00120183 0.00211329 1.04129)
(0.000415106 0.00214211 1.04095)
(-0.000376842 0.00214495 1.04094)
(-0.0011745 0.00212504 1.04126)
(-0.00200304 0.00208009 1.0419)
(-0.00279179 0.00200201 1.04287)
(-0.00366468 0.00185696 1.04417)
(0.00369894 0.00106837 1.0437)
(0.00282892 0.00119307 1.04232)
(0.00205104 0.00125543 1.04129)
(0.00123636 0.00129238 1.0406)
(0.000425234 0.0013075 1.04025)
(-0.000388937 0.00130503 1.04025)
(-0.00120997 0.00128573 1.04058)
(-0.00204991 0.00124887 1.04125)
(-0.00285664 0.0012096 1.04227)
(-0.00370888 0.00112132 1.04365)
(0.00377647 0.000358412 1.04342)
(0.00290207 0.000426849 1.042)
(0.00208414 0.000456534 1.04095)
(0.00125322 0.000471094 1.04026)
(0.000427295 0.000474413 1.0399)
(-0.000398501 0.000470404 1.0399)
(-0.0012307 0.00046012 1.04024)
(-0.00207507 0.000444198 1.04093)
(-0.00290376 0.000428918 1.04197)
(-0.00377134 0.000386381 1.04338)
(0.00378324 -0.00032626 1.04341)
(0.00291913 -0.000348118 1.04199)
(0.00209387 -0.000346097 1.04094)
(0.00125407 -0.000353139 1.04025)
(0.000424411 -0.000360206 1.0399)
(-0.000403278 -0.0003642 1.0399)
(-0.00123636 -0.000364504 1.04024)
(-0.00208069 -0.000359891 1.04093)
(-0.00290856 -0.00035554 1.04197)
(-0.00377301 -0.000321926 1.04338)
(0.00372903 -0.00104852 1.04366)
(0.00288587 -0.00112401 1.04229)
(0.00207903 -0.00115267 1.04126)
(0.001239 -0.00118397 1.04058)
(0.000416333 -0.00120193 1.04024)
(-0.000402795 -0.00120591 1.04024)
(-0.00122617 -0.00119513 1.04057)
(-0.00206619 -0.00116751 1.04125)
(-0.00287056 -0.00113746 1.04227)
(-0.00371381 -0.00105623 1.04364)
(0.00368808 -0.00177493 1.04418)
(0.00282964 -0.00191612 1.04288)
(0.0020382 -0.00198959 1.04191)
(0.00120533 -0.00203443 1.04126)
(0.000402958 -0.00205716 1.04093)
(-0.000396792 -0.00206086 1.04093)
(-0.00119824 -0.00204435 1.04125)
(-0.00202732 -0.00200459 1.0419)
(-0.00281276 -0.00193208 1.04287)
(-0.00367223 -0.00179086 1.04417)
(0.00335363 -0.00263716 1.04498)
(0.0026962 -0.00265042 1.04379)
(0.0019614 -0.00278607 1.04288)
(0.0011681 -0.00285067 1.04228)
(0.000389957 -0.00289668 1.04197)
(-0.000390094 -0.0028995 1.04197)
(-0.00116667 -0.00285914 1.04227)
(-0.00195496 -0.00279943 1.04287)
(-0.00268228 -0.00266737 1.04378)
(-0.00333984 -0.0026591 1.04497)
(0.00358252 -0.00354498 1.04607)
(0.00268386 -0.00332436 1.04498)
(0.00181527 -0.00366231 1.04418)
(0.0010804 -0.00370868 1.04365)
(0.000349228 -0.00377207 1.04338)
(-0.00035438 -0.00377389 1.04338)
(-0.00108399 -0.00371389 1.04364)
(-0.00181314 -0.00367107 1.04417)
(-0.00267482 -0.00333611 1.04497)
(-0.00357138 -0.00356419 1.04606)
(0.00241676 0.00248481 1.05266)
(0.00190335 0.00240965 1.05163)
(0.00117799 0.00265306 1.05087)
(0.000671533 0.00270469 1.05037)
(0.000191565 0.00279359 1.05011)
(-0.00027057 0.00279875 1.05011)
(-0.000793568 0.00272536 1.05035)
(-0.00128503 0.00269191 1.05084)
(-0.00191511 0.00240193 1.05158)
(-0.00234848 0.00241076 1.05262)
(0.00235103 0.0019616 1.05163)
(0.00184462 0.00191442 1.05049)
(0.00129718 0.0020384 1.04962)
(0.000774713 0.00212881 1.04904)
(0.000247968 0.00219618 1.04875)
(-0.000294953 0.00220406 1.04875)
(-0.000843631 0.00217064 1.04903)
(-0.00138989 0.00213681 1.04959)
(-0.00193548 0.00201424 1.05045)
(-0.00234854 0.0019957 1.05158)
(0.00261183 0.0012153 1.05087)
(0.00197804 0.00134804 1.04962)
(0.00142759 0.00148333 1.04869)
(0.00084737 0.00156143 1.04806)
(0.000274459 0.00160178 1.04775)
(-0.000301147 0.00160836 1.04774)
(-0.000875761 0.00158961 1.04804)
(-0.00147701 0.00154808 1.04866)
(-0.0020593 0.00145736 1.04959)
(-0.00263665 0.00134626 1.05083)
(0.00265747 0.000709191 1.05037)
(0.00207465 0.00081725 1.04904)
(0.00150895 0.000893519 1.04806)
(0.000897608 0.000944727 1.04741)
(0.000295929 0.000974015 1.04708)
(-0.000307289 0.000980532 1.04708)
(-0.000907727 0.000966971 1.04739)
(-0.00152093 0.000932742 1.04804)
(-0.00210029 0.000891457 1.04901)
(-0.00267345 0.00082871 1.05033)
(0.00274889 0.000224789 1.05011)
(0.00214329 0.000283966 1.04875)
(0.00154879 0.000313269 1.04775)
(0.000927218 0.000335815 1.04708)
(0.000309914 0.000350514 1.04675)
(-0.000307601 0.000355962 1.04674)
(-0.000922955 0.00035228 1.04707)
(-0.00154673 0.000339106 1.04773)
(-0.00214532 0.000321887 1.04872)
(-0.00275023 0.000281924 1.05008)
(0.00275281 -0.000246808 1.0501)
(0.00215528 -0.000268215 1.04874)
(0.00155911 -0.000270312 1.04774)
(0.000934607 -0.000274374 1.04707)
(0.000315929 -0.000273744 1.04674)
(-0.000305405 -0.000271128 1.04674)
(-0.000924611 -0.000267689 1.04706)
(-0.00155018 -0.000260244 1.04772)
(-0.00214991 -0.000252707 1.04872)
(-0.0027519 -0.000223466 1.05008)
(0.00268425 -0.000776697 1.05035)
(0.00212463 -0.000822689 1.04902)
(0.00154278 -0.000852261 1.04804)
(0.00092325 -0.000881832 1.04739)
(0.000313106 -0.000896126 1.04706)
(-0.000301504 -0.000896625 1.04706)
(-0.000911704 -0.000883568 1.04738)
(-0.00153226 -0.000854439 1.04803)
(-0.00211434 -0.000821896 1.04901)
(-0.0026782 -0.000768025 1.05033)
(0.00265148 -0.00127383 1.05084)
(0.00209488 -0.00137662 1.04959)
(0.00150439 -0.00146101 1.04865)
(0.00089075 -0.00150424 1.04803)
(0.000301516 -0.00152815 1.04772)
(-0.000293155 -0.00153031 1.04772)
(-0.000882545 -0.00151045 1.04803)
(-0.00149351 -0.00147121 1.04864)
(-0.00208026 -0.0013857 1.04957)
(-0.00264299 -0.00127913 1.05082)
(0.00236522 -0.00190448 1.05158)
(0.00197354 -0.00192627 1.05045)
(0.00141479 -0.00205092 1.04958)
(0.000851293 -0.00209171 1.04901)
(0.00028645 -0.00213503 1.04872)
(-0.000283255 -0.00213743 1.04872)
(-0.000848124 -0.00209915 1.049)
(-0.00140808 -0.00206362 1.04957)
(-0.00195969 -0.00194207 1.05043)
(-0.00235566 -0.00192318 1.05157)
(0.00237198 -0.00233256 1.05262)
(0.00195066 -0.00233646 1.05158)
(0.0013027 -0.00262785 1.05083)
(0.00079013 -0.00266676 1.05033)
(0.000249502 -0.00274417 1.05008)
(-0.000250938 -0.0027457 1.05008)
(-0.00079246 -0.00267137 1.05033)
(-0.0013008 -0.00263588 1.05082)
(-0.00194155 -0.0023472 1.05157)
(-0.00236299 -0.00235139 1.05261)
(0.00187939 0.00193304 1.05714)
(0.00153859 0.00191266 1.05617)
(0.000934551 0.00206325 1.05549)
(0.00055982 0.00209455 1.05503)
(0.000161081 0.00216187 1.05481)
(-0.000230191 0.00215936 1.05481)
(-0.000688641 0.00209729 1.05505)
(-0.0010782 0.00209353 1.05551)
(-0.00160516 0.00191941 1.05622)
(-0.00182452 0.00187045 1.0572)
(0.00186192 0.00157706 1.05618)
(0.0014742 0.00152324 1.05511)
(0.00101726 0.0016337 1.05432)
(0.000613783 0.00168532 1.05379)
(0.000185807 0.00171764 1.05353)
(-0.000252686 0.00171252 1.05353)
(-0.000698004 0.0016907 1.0538)
(-0.00111586 0.00169778 1.05433)
(-0.00157265 0.0016265 1.05514)
(-0.00188213 0.00165625 1.05621)
(0.00201941 0.000952902 1.05549)
(0.00159094 0.00104631 1.05432)
(0.00113914 0.00117126 1.05344)
(0.000660896 0.0012214 1.05287)
(0.00019527 0.00124575 1.05258)
(-0.000263274 0.00124736 1.05258)
(-0.000716224 0.00123493 1.05286)
(-0.00118166 0.00121769 1.05344)
(-0.00164638 0.00114728 1.05432)
(-0.00205529 0.00109702 1.0555)
(0.00204703 0.000581617 1.05503)
(0.00164445 0.000639944 1.05379)
(0.0011903 0.00068655 1.05286)
(0.000692629 0.000717958 1.05225)
(0.000212891 0.000743736 1.05195)
(-0.000264207 0.000752797 1.05195)
(-0.000730902 0.000748752 1.05225)
(-0.00120107 0.000732682 1.05286)
(-0.00164803 0.000705629 1.05378)
(-0.00206449 0.000681577 1.05503)
(0.00212127 0.000178646 1.0548)
(0.00167691 0.000208193 1.05352)
(0.00121092 0.000217988 1.05257)
(0.00071746 0.000233797 1.05195)
(0.000229825 0.00025102 1.05163)
(-0.000257457 0.000261506 1.05163)
(-0.000735362 0.000264575 1.05194)
(-0.00121839 0.000259054 1.05256)
(-0.00167957 0.000244801 1.05351)
(-0.0021288 0.000215109 1.05479)
(0.00212135 -0.000220421 1.05481)
(0.00167635 -0.0002386 1.05352)
(0.00121428 -0.000246451 1.05257)
(0.000725438 -0.00024739 1.05194)
(0.000240463 -0.000240774 1.05163)
(-0.000250432 -0.000233466 1.05163)
(-0.000733276 -0.000228189 1.05193)
(-0.00121909 -0.000222034 1.05256)
(-0.00168339 -0.000214511 1.0535)
(-0.00213112 -0.000196793 1.05479)
(0.00206587 -0.000684911 1.05504)
(0.001657 -0.000689612 1.05379)
(0.00120299 -0.000706126 1.05286)
(0.000722443 -0.000718568 1.05224)
(0.000243598 -0.000722812 1.05194)
(-0.000244808 -0.000719445 1.05193)
(-0.000723525 -0.00070987 1.05224)
(-0.00120575 -0.00069429 1.05285)
(-0.00166083 -0.000674406 1.05377)
(-0.00207145 -0.000661469 1.05502)
(0.00206371 -0.00108229 1.0555)
(0.00166887 -0.00111778 1.05432)
(0.00118944 -0.00117898 1.05344)
(0.000708456 -0.00119656 1.05285)
(0.000239869 -0.00121055 1.05256)
(-0.000237719 -0.00120977 1.05256)
(-0.000708059 -0.00119409 1.05285)
(-0.00118844 -0.00117677 1.05343)
(-0.00166613 -0.00111106 1.05431)
(-0.00206493 -0.00106743 1.05549)
(0.00189472 -0.00161187 1.05621)
(0.00160118 -0.00158073 1.05513)
(0.00112304 -0.00165195 1.05432)
(0.000685628 -0.00164993 1.05378)
(0.00022923 -0.00167673 1.0535)
(-0.000227018 -0.00167684 1.0535)
(-0.000685531 -0.00165043 1.05377)
(-0.0011226 -0.00165419 1.05431)
(-0.00159443 -0.00158203 1.05512)
(-0.00189121 -0.00161076 1.05619)
(0.00184092 -0.00182152 1.05719)
(0.00162844 -0.00188487 1.0562)
(0.00107627 -0.00205851 1.05549)
(0.000667549 -0.00206587 1.05502)
(0.000205847 -0.00212759 1.05479)
(-0.000203927 -0.00212721 1.05478)
(-0.000669284 -0.00206495 1.05502)
(-0.00107679 -0.00205699 1.05549)
(-0.00162277 -0.00188152 1.05619)
(-0.00183452 -0.00182214 1.05717)
(0.00183356 0.00186005 1.06128)
(0.0015452 0.0018469 1.06036)
(0.000995422 0.00194064 1.05971)
(0.000644039 0.00196025 1.05929)
(0.000213658 0.00200222 1.05908)
(-0.00021364 0.00199615 1.05909)
(-0.000705614 0.00195407 1.05932)
(-0.00109944 0.00196976 1.05978)
(-0.00162205 0.00188549 1.06046)
(-0.00182808 0.0018481 1.06141)
(0.00182762 0.00155692 1.06037)
(0.00149218 0.00151202 1.05934)
(0.00105116 0.00160092 1.05859)
(0.000652074 0.0016068 1.0581)
(0.00020911 0.0016011 1.05785)
(-0.000234363 0.00158434 1.05786)
(-0.000688444 0.00157063 1.05813)
(-0.00109385 0.00160364 1.05864)
(-0.00155007 0.00156983 1.05942)
(-0.00187488 0.00163416 1.06046)
(0.0019249 0.000992768 1.05972)
(0.00158616 0.00105665 1.05859)
(0.00113893 0.00114544 1.05776)
(0.000661911 0.00115238 1.05722)
(0.000198333 0.00115304 1.05695)
(-0.000251328 0.00114576 1.05695)
(-0.000697709 0.00113583 1.05724)
(-0.00113971 0.00113863 1.05779)
(-0.00158868 0.00108864 1.05864)
(-0.0019632 0.0010756 1.05977)
(0.00194605 0.000649931 1.05928)
(0.00159192 0.000662204 1.0581)
(0.00114542 0.00066884 1.05722)
(0.00066415 0.000669926 1.05664)
(0.000203766 0.000682312 1.05635)
(-0.000253269 0.000685544 1.05635)
(-0.000698897 0.000684901 1.05665)
(-0.00113857 0.000684434 1.05723)
(-0.00156583 0.000669346 1.05811)
(-0.00195783 0.000671159 1.0593)
(0.00199664 0.000218114 1.05907)
(0.00158692 0.000219614 1.05785)
(0.00114115 0.000208172 1.05695)
(0.000675005 0.000210338 1.05635)
(0.000213745 0.000220469 1.05606)
(-0.000248123 0.000227038 1.05606)
(-0.000698007 0.000230389 1.05635)
(-0.00114938 0.000229674 1.05695)
(-0.00158597 0.000218214 1.05785)
(-0.00200444 0.000198408 1.05907)
(0.00199295 -0.000210429 1.05908)
(0.00157473 -0.00022789 1.05786)
(0.00113471 -0.000243573 1.05695)
(0.000676351 -0.000246675 1.05635)
(0.000220361 -0.00024204 1.05606)
(-0.000243122 -0.000236936 1.05605)
(-0.000696144 -0.000233561 1.05635)
(-0.00114858 -0.000230374 1.05694)
(-0.00158825 -0.000222365 1.05785)
(-0.00200621 -0.000212494 1.05907)
(0.0019526 -0.000700346 1.05931)
(0.0015607 -0.000683055 1.05812)
(0.00112411 -0.000693438 1.05723)
(0.000675947 -0.000693259 1.05664)
(0.000223292 -0.000692871 1.05635)
(-0.00023957 -0.000689973 1.05635)
(-0.000691069 -0.000685388 1.05664)
(-0.00113974 -0.000684275 1.05722)
(-0.001575 -0.00067396 1.0581)
(-0.00196333 -0.000686323 1.0593)
(0.0019633 -0.00109802 1.05977)
(0.00159348 -0.00109635 1.05863)
(0.00112834 -0.00114007 1.05779)
(0.000676523 -0.00113787 1.05723)
(0.000223777 -0.00114576 1.05695)
(-0.000235779 -0.00114405 1.05694)
(-0.000690288 -0.00113366 1.05722)
(-0.00114152 -0.00113579 1.05778)
(-0.00160373 -0.00108905 1.05862)
(-0.0019714 -0.0010836 1.05975)
(0.00187658 -0.00162626 1.06045)
(0.00155968 -0.00156004 1.05941)
(0.00108117 -0.00159619 1.05863)
(0.000665205 -0.00156902 1.05811)
(0.000215358 -0.00158409 1.05785)
(-0.000225553 -0.00158347 1.05785)
(-0.000677976 -0.00156729 1.0581)
(-0.00109477 -0.00159553 1.05862)
(-0.00156646 -0.00155867 1.0594)
(-0.00188073 -0.00162101 1.06044)
(0.00182574 -0.00182172 1.0614)
(0.00162063 -0.00187671 1.06045)
(0.00107324 -0.00196477 1.05976)
(0.000673971 -0.00195639 1.0593)
(0.000201652 -0.00200036 1.05907)
(-0.000211004 -0.00200002 1.05907)
(-0.000687938 -0.0019559 1.0593)
(-0.00108836 -0.00196436 1.05975)
(-0.00162915 -0.00187478 1.06044)
(-0.00182954 -0.00182138 1.06139)
(0.00194532 0.00194693 1.06575)
(0.00164864 0.00193204 1.06484)
(0.00112672 0.00200525 1.0642)
(0.000757731 0.00201738 1.06378)
(0.000271895 0.0020383 1.06358)
(-0.000204706 0.0020303 1.06359)
(-0.000740217 0.00199888 1.06382)
(-0.00116291 0.00201149 1.06428)
(-0.00170389 0.00195703 1.06497)
(-0.00196191 0.00193378 1.06591)
(0.00193716 0.00162937 1.06485)
(0.0016142 0.00160508 1.06384)
(0.00116532 0.00167636 1.0631)
(0.000735695 0.00164988 1.06261)
(0.00025174 0.00162169 1.06237)
(-0.000223955 0.00160049 1.06238)
(-0.000717835 0.00158775 1.06264)
(-0.00115192 0.00162271 1.06316)
(-0.001631 0.00159545 1.06393)
(-0.00199262 0.00165776 1.06496)
(0.00202067 0.00109132 1.06421)
(0.00169192 0.00114312 1.0631)
(0.00122033 0.00119961 1.06228)
(0.000720242 0.00117619 1.06174)
(0.000230122 0.00116194 1.06148)
(-0.000246338 0.00114806 1.06149)
(-0.000728859 0.00113533 1.06177)
(-0.00119364 0.00114365 1.06232)
(-0.00166444 0.00109993 1.06315)
(-0.00205313 0.00109106 1.06427)
(0.00204617 0.000732097 1.06378)
(0.0016697 0.000720583 1.06261)
(0.00119735 0.00070416 1.06174)
(0.000702576 0.00068605 1.06117)
(0.000225148 0.000687003 1.06089)
(-0.00025336 0.000681474 1.0609)
(-0.000726349 0.000677753 1.06119)
(-0.00118604 0.000683033 1.06177)
(-0.00163822 0.00067064 1.06264)
(-0.00205367 0.000679467 1.06381)
(0.0020802 0.000249066 1.06357)
(0.00164704 0.000238423 1.06236)
(0.00118099 0.000219303 1.06147)
(0.000702973 0.000213205 1.06089)
(0.000225434 0.000214388 1.0606)
(-0.000255433 0.00021265 1.06061)
(-0.000727087 0.000211379 1.0609)
(-0.00119602 0.00021107 1.06149)
(-0.00165438 0.000200066 1.06238)
(-0.00209114 0.000185453 1.06358)
(0.00207391 -0.000220557 1.06357)
(0.0016323 -0.000237033 1.06237)
(0.0011706 -0.000256854 1.06148)
(0.000697651 -0.000262969 1.0609)
(0.000224529 -0.000263865 1.06061)
(-0.000256224 -0.000264109 1.06061)
(-0.00072785 -0.000263535 1.0609)
(-0.001195 -0.000262254 1.06149)
(-0.0016552 -0.000251703 1.06238)
(-0.00209285 -0.000243853 1.06358)
(0.00204056 -0.000744061 1.06381)
(0.00161773 -0.000725082 1.06263)
(0.00115749 -0.000738401 1.06176)
(0.000695617 -0.000733802 1.06119)
(0.000224115 -0.000733737 1.0609)
(-0.000255028 -0.000732594 1.0609)
(-0.000724954 -0.000730039 1.06119)
(-0.0011862 -0.000735217 1.06176)
(-0.00164313 -0.000724783 1.06263)
(-0.00205938 -0.000742652 1.06381)
(0.00204451 -0.0011644 1.06427)
(0.00164843 -0.00116053 1.06315)
(0.00116566 -0.00120239 1.06231)
(0.000701977 -0.00119406 1.06176)
(0.000225707 -0.00120097 1.06149)
(-0.000252513 -0.00119862 1.06149)
(-0.000730192 -0.00118799 1.06176)
(-0.00119355 -0.00119559 1.06231)
(-0.001674 -0.00115334 1.06314)
(-0.00206381 -0.00115372 1.06426)
(0.00198601 -0.00171242 1.06495)
(0.00161895 -0.00164591 1.06392)
(0.00112279 -0.00167694 1.06315)
(0.000692382 -0.00164668 1.06263)
(0.000217306 -0.00165812 1.06238)
(-0.000239555 -0.00165614 1.06237)
(-0.000717201 -0.0016407 1.06263)
(-0.00115076 -0.00167025 1.06314)
(-0.00164234 -0.00163879 1.06391)
(-0.00200349 -0.00170169 1.06495)
(0.00194859 -0.00196416 1.0659)
(0.00167921 -0.00200331 1.06495)
(0.00112014 -0.00206166 1.06427)
(0.000707793 -0.00205753 1.06381)
(0.000208334 -0.00209196 1.06358)
(-0.000226793 -0.00209078 1.06358)
(-0.000731344 -0.00205509 1.0638)
(-0.00114834 -0.0020582 1.06426)
(-0.00170425 -0.00199761 1.06495)
(-0.00196561 -0.00195695 1.0659)
(0.00204126 0.00201079 1.07058)
(0.00172695 0.00199742 1.06966)
(0.00121788 0.00206839 1.06902)
(0.000820435 0.00208306 1.06859)
(0.000292951 0.00210154 1.06838)
(-0.00021107 0.00210167 1.06839)
(-0.000770609 0.00207987 1.06863)
(-0.00121757 0.00208639 1.06909)
(-0.00177121 0.00203484 1.06978)
(-0.00207772 0.00201242 1.07073)
(0.00204141 0.00167442 1.06967)
(0.00170955 0.00166725 1.06865)
(0.00124855 0.00172279 1.06791)
(0.000791542 0.00168312 1.06742)
(0.000278503 0.00165473 1.06717)
(-0.000220683 0.00164256 1.06718)
(-0.000747057 0.00163332 1.06745)
(-0.00121282 0.00166483 1.06797)
(-0.00171362 0.00163567 1.06874)
(-0.00210118 0.0016819 1.06978)
(0.00212853 0.00115228 1.06903)
(0.00177331 0.00119713 1.06791)
(0.00128104 0.00123144 1.06709)
(0.000769372 0.00119637 1.06654)
(0.000261381 0.00118118 1.06628)
(-0.000239368 0.00116953 1.06629)
(-0.000758576 0.00115755 1.06657)
(-0.00125196 0.00116806 1.06713)
(-0.0017483 0.00112947 1.06796)
(-0.00215871 0.0011172 1.06909)
(0.00215818 0.000767915 1.06859)
(0.00173995 0.000749388 1.06741)
(0.00124753 0.000728205 1.06654)
(0.00074604 0.000705517 1.06597)
(0.000253753 0.000701855 1.06569)
(-0.000247673 0.000691424 1.0657)
(-0.000753227 0.000685994 1.066)
(-0.00124084 0.00069494 1.06657)
(-0.00172211 0.000685258 1.06745)
(-0.00216639 0.000697621 1.06862)
(0.00218507 0.000248689 1.06837)
(0.00171828 0.000241209 1.06717)
(0.00123299 0.000228255 1.06628)
(0.000743191 0.000221972 1.06569)
(0.000247343 0.00021724 1.06541)
(-0.000255518 0.000208563 1.06541)
(-0.000755448 0.000203354 1.06571)
(-0.00124914 0.000203536 1.0663)
(-0.00173414 0.000194997 1.06719)
(-0.00219736 0.00018587 1.06839)
(0.00218083 -0.000238203 1.06837)
(0.00171097 -0.000249401 1.06717)
(0.00122635 -0.000266462 1.06628)
(0.000735014 -0.000272595 1.0657)
(0.000240326 -0.000278072 1.06541)
(-0.000261516 -0.000283321 1.06541)
(-0.00075822 -0.000284829 1.06571)
(-0.00124681 -0.000283706 1.0663)
(-0.0017317 -0.000269403 1.06719)
(-0.00219709 -0.000258957 1.06839)
(0.00215183 -0.000773705 1.06861)
(0.00169613 -0.000758448 1.06744)
(0.00121247 -0.000775701 1.06657)
(0.000731436 -0.000769815 1.06599)
(0.000236459 -0.000771523 1.06571)
(-0.000262196 -0.000772432 1.06571)
(-0.000755692 -0.000770325 1.066)
(-0.00123616 -0.00077714 1.06657)
(-0.00171679 -0.00076274 1.06745)
(-0.0021659 -0.000776986 1.06863)
(0.00214516 -0.0012083 1.06907)
(0.00171822 -0.00121502 1.06796)
(0.00121864 -0.0012592 1.06712)