/*--------------------------------*- C++ -*----------------------------------*\
| =========                 |                                                 |
| \\      /  F ield         | OpenFOAM: The Open Source CFD Toolbox           |
|  \\    /   O peration     | Version:  2406                                  |
|   \\  /    A nd           | Website:  www.openfoam.com                      |
|    \\/     M anipulation  |                                                 |
\*---------------------------------------------------------------------------*/
FoamFile
{
    version     2.0;
    format      ascii;
    arch        "LSB;label=32;scalar=64";
    class       volScalarField;
    location    "0.2";
    object      div(phi);
}
// * * * * * * * * * * * * * * * * * * * * * * * * * * * * * * * * * * * * * //

dimensions      [0 0 -1 0 0 0 0];

internalField   nonuniform List<scalar> 
25000
(
17.3761
15.8292
15.3288
14.4904
13.9106
13.7249
14.1323
14.6461
14.8598
12.448
15.6378
13.3129
12.9203
12.247
11.4419
11.099
11.3283
11.8932
12.2803
10.0692
15.2969
13.3033
12.9647
12.4146
11.4244
10.6898
10.831
11.4289
11.7782
9.9974
15.0062
13.1554
13.1745
12.4204
11.3809
10.5764
10.4763
10.9874
11.433
9.79135
14.7958
13.3313
12.9476
12.3946
11.4302
10.5859
10.3875
10.7674
11.1094
9.56809
14.5855
13.1952
13.0619
12.3459
11.4974
10.6557
10.3155
10.6757
10.9895
9.28284
14.3906
12.9843
12.7097
12.2158
11.1702
10.3672
10.3192
10.5905
10.761
9.04981
13.5176
12.0132
11.9658
11.282
10.4381
10.0101
9.85258
10.4548
10.7635
8.64842
12.3807
10.4151
10.3508
9.93395
9.44641
9.12122
9.57764
10.1488
9.96777
7.82807
9.68147
7.64505
7.6891
7.63321
7.59473
7.83013
8.10862
8.17275
7.78785
5.80431
16.0792
14.6096
14.4398
13.7687
13.1329
12.6101
12.5672
12.8411
13.3846
11.9281
13.6908
12.2946
12.5538
11.9157
10.9853
10.3464
10.1425
10.2775
10.5034
9.04835
14.0284
12.6967
12.6888
12.0529
11.0891
10.2971
10.0195
10.0762
10.1316
8.85329
14.5253
12.5912
12.5736
11.7103
10.8362
10.2651
9.98579
9.93203
9.96189
8.6795
14.9061
12.5711
12.1157
11.4054
10.6531
10.1842
10.1385
9.95885
9.84769
8.58276
15.2287
12.5894
12.2182
11.3729
10.748
10.3619
10.29
10.0776
9.94857
8.52713
15.9736
13.2115
12.5174
11.788
10.9259
10.5072
10.5389
10.156
9.89533
8.64217
15.9134
13.3763
12.6383
11.5665
10.8179
10.5475
10.0864
9.8384
9.98388
8.606
14.6604
12.2073
11.5592
10.7559
10.0953
9.50237
9.21205
9.27222
9.33025
8.22162
10.9468
9.07797
9.0408
8.6304
8.09081
7.72231
7.57668
7.66529
7.89448
6.60306
17.5168
15.9865
15.5717
15.0087
14.9397
15.0828
15.2336
14.8604
14.8516
12.945
15.9843
14.7374
14.2106
13.1107
12.5131
12.4949
12.5852
12.0818
11.1577
9.26385
17.0017
16.1908
15.039
13.6415
12.9352
12.9407
12.8358
11.7796
10.7165
8.78332
17.5558
15.8715
15.0908
13.7787
13.1161
13.1393
12.815
11.5725
10.3954
8.53731
16.7106
14.5858
14.0193
13.2548
12.578
12.4159
12.3542
11.3355
10.2029
8.41446
15.5467
13.023
12.4442
11.9071
11.7933
11.88
11.9105
11.1371
10.114
8.33402
15.069
12.003
11.3187
11.1071
11.0346
11.4707
11.6793
10.8478
9.94547
8.41108
14.7727
11.5645
11.1986
10.752
10.65
11.2817
11.1357
10.4896
10.0262
8.39115
14.5572
11.3268
11.2387
10.8856
10.5588
10.5142
10.3698
9.82265
9.23236
8.0179
12.1636
9.81573
10.067
9.7376
9.23711
8.85192
8.33005
7.81077
7.60573
6.55885
17.7954
16.6249
16.9892
15.7205
14.8225
14.5827
14.7785
14.3531
14.0342
11.7898
14.6787
14.1057
15.8268
15.3703
13.8551
13.2242
13.2143
13.0249
11.5389
8.71349
14.2806
13.0782
14.2698
14.6963
14.1514
13.9665
14.5277
14.3097
12.1525
9.07013
14.5263
11.4402
11.6025
12.0064
12.42
13.2959
15.033
15.7216
12.488
9.16503
14.5864
10.4516
10.0873
10.0369
10.4173
11.7019
14.4909
16.1278
12.2785
8.85158
13.9319
9.73996
9.17652
8.78329
9.32541
10.7749
13.6827
15.3108
11.5521
8.23826
12.9983
9.00646
8.35493
8.27635
8.9123
10.4919
13.0988
13.5966
10.3659
7.67542
12.3063
8.83031
8.44652
8.5448
9.30553
10.8125
12.3221
11.5611
9.4646
7.22992
12.2337
8.87673
8.91599
9.41385
9.99807
10.8305
10.9982
9.59077
8.19166
6.79815
10.9439
8.38687
8.84934
9.25915
9.51605
9.51189
8.43492
7.35717
6.67899
5.65152
17.8063
16.1103
18.3507
20.3807
20.0161
18.4301
17.534
16.8569
16.0459
12.7632
14.6566
12.672
13.7907
15.4066
17.0468
17.3707
16.5734
16.0734
14.3097
10.4628
13.6273
11.6457
11.9327
12.6851
14.0539
15.2511
15.8862
16.271
14.6878
10.8697
12.8494
10.6095
10.7148
10.9569
11.4788
12.0144
13.2196
14.4619
13.5375
10.7371
12.4176
10.207
10.1572
9.81643
9.56746
9.92181
11.0828
12.4331
12.1367
10.1994
12.6247
10.2252
9.57379
8.61293
8.35623
8.76846
10.0784
11.2751
11.0876
9.72795
13.2715
9.94628
8.8455
8.05827
7.87758
8.55641
9.8152
10.3555
10.6512
9.46763
13.2808
9.50564
8.59623
8.02571
8.2069
9.11948
9.67868
10.3505
10.9488
9.13361
12.7635
9.25907
8.68063
8.69668
9.18536
9.78719
10.4594
10.8152
10.3383
8.41783
11.3034
8.31453
8.34841
8.61366
9.18389
9.84432
9.73035
8.7736
7.9179
6.32835
17.9096
14.7349
14.1655
13.9767
15.0939
17.2022
19.8247
19.9494
19.1982
15.2603
14.777
12.0127
11.8811
12.1286
13.1914
15.4627
17.8488
18.2451
16.4921
12.0187
13.9703
11.9427
12.0176
12.6671
13.84
15.0885
15.984
16.4698
15.4696
10.9749
14.0437
12.8468
12.473
12.0893
12.156
12.4197
13.4208
14.7834
13.6918
9.69885
14.0574
13.1882
11.6513
10.3102
9.82747
10.2137
11.518
12.7534
11.4849
8.39879
13.3577
12.1447
10.5718
9.20154
8.82355
9.32114
10.7162
11.4223
9.651
7.57519
12.7447
11.2603
10.107
9.1677
8.80541
9.48546
10.3171
9.78863
8.39427
7.21713
12.0759
10.5834
10.2168
9.43638
9.34038
9.46898
8.8888
8.19389
8.02913
7.15905
11.8108
9.88387
10.0569
9.81446
9.20679
8.42417
7.8466
7.82001
7.79175
7.08847
10.0877
7.92853
8.65763
8.85995
8.54347
8.19709
7.72711
7.41784
7.3243
6.22402
26.3405
21.2669
19.2015
17.2981
16.3009
16.6909
18.6195
18.7782
17.4926
13.383
23.8798
17.5154
16.0928
15.3881
15.2766
17.2052
18.6272
17.0266
14.9635
10.4064
22.8886
17.0131
15.186
15.0874
16.3876
17.9291
17.0665
15.4844
15.3998
10.7653
20.5244
15.6603
14.3368
14.3405
14.4888
13.3069
12.4688
13.6967
15.4938
11.2158
18.5065
14.4045
13.4199
12.7235
11.2506
9.95717
10.2029
12.5367
14.7558
10.5813
16.8863
13.3719
12.6867
11.1117
9.46274
8.74194
9.68318
11.9245
12.3912
9.13107
15.3249
12.5702
12.2007
10.6157
9.13629
9.0382
10.0584
10.7911
10.3166
8.41519
13.778
11.5986
11.7535
10.3295
9.20465
9.00721
8.72401
8.65894
8.8839
7.95416
12.5314
10.5518
10.738
9.49759
8.10337
7.29722
7.12882
7.2531
7.61761
7.35427
10.0549
8.71893
9.46132
8.8325
7.58079
6.95354
6.64124
6.59053
6.87657
6.21509
24.5684
19.0247
16.7993
15.2463
15.2212
16.4435
18.4337
17.3228
16.5561
14.1729
19.3327
13.2045
12.1163
11.8542
12.4838
14.2182
14.8451
13.4321
12.4583
10.962
17.2336
11.8567
11.9164
12.5459
14.0132
15.2483
13.5468
11.4754
10.9193
9.67251
15.0947
11.556
12.4348
13.5426
14.253
12.8846
10.9322
10.0138
9.53911
8.47487
13.6685
11.5265
12.3856
12.7159
11.4854
9.65269
8.75444
8.84674
9.27111
7.8892
12.9512
10.5836
10.9257
10.5082
9.09277
7.98117
8.04378
8.93114
8.99608
7.65313
12.5139
9.16318
9.076
8.85845
8.0181
7.84262
8.57668
8.90756
8.49819
7.49175
11.8003
8.05711
7.56255
7.46878
7.5112
7.9164
8.17261
7.96379
7.92756
7.29053
12.0305
7.72886
6.66155
6.27667
6.30703
6.49609
6.71823
6.97716
7.14149
7.06071
11.3384
7.75355
6.52621
5.83549
5.58979
5.62952
5.80042
6.05388
6.51064
6.18065
35.0259
28.5919
26.8417
24.6903
22.6886
20.0947
17.6837
15.0499
14.2305
13.2367
25.7517
18.4105
17.992
17.6191
17.1992
16.0257
14.7126
12.3206
9.67157
8.19876
22.7176
16.0461
16.5928
17.3066
17.3135
17.6306
16.5168
13.3703
10.3456
7.85626
19.9509
15.0714
16.1722
17.7606
18.9114
18.319
16.8199
14.5612
11.5386
8.45874
17.5755
14.216
16.4093
19.5032
18.9679
15.9265
14.1563
13.9859
13.1365
9.5563
15.7307
12.5393
15.4949
18.5534
16.6439
13.3811
12.8545
14.1733
13.6127
10.4081
13.8435
10.3061
12.3838
14.7473
14.2678
13.0022
14.0555
13.8953
12.6242
10.3792
12.1089
8.16942
9.01519
10.7424
12.1968
12.9948
12.8117
10.9153
10.4203
9.5983
11.1033
6.98977
6.68714
7.56377
8.83451
9.82797
9.78155
9.41818
9.49265
9.10904
10.7443
6.17312
5.72975
5.77657
6.44026
7.47521
8.42234
8.86398
9.12011
7.80817
22.2512
18.6848
17.1946
15.4672
14.7724
14.5477
14.7048
13.7389
12.7034
10.9942
17.8981
13.6309
13.4643
13.0399
12.5214
11.9307
11.6706
11.3094
10.0511
8.18534
15.9089
12.1685
13.5178
14.1619
13.3631
12.6337
12.3527
11.6074
10.7624
8.90643
15.0449
11.1481
13.4394
14.7984
13.6029
12.4936
12.4623
11.9815
11.0702
9.26449
14.3472
10.65
12.9459
14.2934
12.6436
10.874
10.9785
11.5351
11.3439
9.49893
13.5201
10.13
12.1408
12.7617
11.0283
9.73894
10.4865
11.4774
11.6748
9.69688
12.7499
9.50303
11.2537
11.8694
10.3778
10.2884
12.2126
12.6457
12.3819
10.4563
12.2708
8.96823
10.5215
11.4572
10.7101
11.0348
11.8067
11.2721
11.9291
10.9562
12.0814
8.38001
9.54532
11.0088
10.6578
10.1971
10.316
10.5769
10.7156
9.8288
10.5155
6.98594
7.75495
9.17837
9.42889
8.57885
8.84651
9.75726
10.2625
7.89208
29.3916
23.7142
22.6417
21.85
20.5816
19.2145
18.5277
17.7682
17.5563
15.703
23.4166
17.4734
17.8472
18.3079
17.4694
16.1915
14.775
13.0582
11.738
10.4863
21.3479
15.9554
17.8089
19.806
18.1214
16.7399
15.6411
12.6748
10.715
9.20193
19.7284
14.7408
18.2146
19.1171
15.4077
14.2785
14.5552
12.323
10.031
8.22596
18.6563
14.6783
17.1361
16.8629
13.2904
12.1354
12.6109
11.7202
9.85533
7.76254
18.1815
13.8163
14.5012
13.3274
11.5181
11.9676
12.3643
11.757
10.3157
7.80364
17.5489
12.3462
11.8212
10.8214
10.2987
11.5268
11.2832
11.0114
10.7117
8.82298
16.3182
10.9139
10.1642
9.31061
9.24883
10.2177
9.33899
9.33565
10.4086
9.99837
15.2668
9.89567
8.95093
8.24888
8.27232
8.95482
9.15599
8.97932
9.31791
9.80901
13.3308
8.74008
7.97629
7.27702
7.0987
8.014
9.0644
9.16334
8.27347
6.88301
15.451
13.7546
14.7075
15.4135
15.5203
14.1362
13.0317
12.3103
12.3902
11.2295
12.8824
10.9406
12.4972
14.3484
14.8557
13.6754
10.8337
9.18545
8.21277
7.26228
12.7726
10.6489
13.5468
16.8907
16.8573
15.5588
12.3909
9.47943
7.78109
6.58608
12.5871
10.1757
13.7854
15.1303
12.4725
12.0558
12.0436
10.4005
7.66278
6.08013
12.1403
10.1708
12.7067
12.8156
11.6237
11.2974
11.8048
11.0136
7.97883
5.8347
11.8494
9.3922
10.4344
10.7484
12.3154
12.6883
11.4162
10.3347
8.86019
5.99958
11.4645
8.19982
8.37123
9.45652
11.579
10.9082
8.3524
8.34234
8.66494
7.17799
10.6975
7.33205
7.24129
7.83426
9.03446
8.30962
6.52279
6.38037
7.84482
8.1952
10.3115
6.59494
6.27804
6.64995
7.69966
7.76359
6.24237
5.73075
6.41458
7.38091
9.04783
5.79396
5.50775
5.70801
6.79054
7.70493
6.60152
5.39794
5.23202
5.05546
19.6141
15.9619
17.2233
19.2362
20.5809
19.4488
16.4245
13.7963
13.0411
11.3685
16.2224
12.5428
14.1004
16.9468
17.8551
16.4264
13.2595
9.9733
8.20706
7.17813
14.9884
11.642
14.8092
19.6596
17.3334
16.2273
14.5076
10.606
7.77173
6.29971
13.6463
10.6548
15.2229
17.4899
12.0161
11.2333
12.262
11.7328
8.11718
5.8494
13.5329
10.7104
13.9269
13.838
10.5606
9.5002
10.7419
10.9224
9.06725
5.86911
13.3103
10.7293
12.665
13.1299
11.71
9.33046
8.97082
8.75166
8.91316
6.5264
12.9594
9.96744
11.6092
13.0984
11.2462
7.26082
6.12203
6.46493
7.6149
7.61908
12.2063
8.54672
9.55786
10.3834
8.85689
5.78744
4.87093
5.04406
6.52259
7.94382
10.8399
7.17239
7.46376
8.80601
8.24438
5.70137
4.62124
4.50845
5.26546
5.92789
9.13632
5.613
5.82392
6.87916
7.50308
6.65576
5.03615
4.36427
4.45857
4.49773
10.1341
8.8573
10.8251
11.2212
11.489
12.3501
13.024
11.5097
9.70424
8.04561
7.66778
6.75642
8.41696
8.69645
9.23086
9.54646
9.58537
8.77337
6.70176
5.487
7.08579
6.11154
8.61434
9.87169
8.93193
8.60313
9.25806
8.90907
7.34676
5.31198
7.6764
6.31715
9.47317
9.96555
7.04481
6.2345
7.18751
8.42454
8.42794
5.49932
8.29601
7.09935
9.96833
8.81491
5.9985
5.26555
5.73968
7.11084
8.20078
5.74887
8.63583
7.58771
9.46167
8.04264
5.75573
4.90217
4.84848
5.3903
6.26496
5.66537
9.005
7.29414
8.34257
7.24715
5.1237
4.22858
3.90608
4.19655
5.08679
5.23582
9.10455
6.98546
7.1013
6.16336
4.442
3.66113
3.41631
3.58029
4.33417
4.78095
9.27173
6.7093
6.94279
6.52585
4.59687
3.81624
3.2436
3.34827
3.74583
4.01424
7.23773
5.88593
7.02092
7.08435
5.85396
4.36963
3.62524
3.3171
3.36425
3.46048
19.7734
18.7814
22.3307
20.294
18.1157
17.1694
16.9873
18.4429
21.7677
17.8774
14.16
11.7961
14.3344
14.3071
13.2073
11.8013
11.3496
12.5863
13.7069
10.2033
13.5813
10.1256
12.2584
13.1929
12.1344
10.1187
9.03842
9.49307
10.5238
7.84987
14.4438
10.4575
13.4431
13.0041
10.1776
7.62667
7.03015
7.44805
7.99367
6.67725
15.3205
12.2221
14.4517
11.2477
7.73869
6.20552
5.71053
5.88824
6.75349
6.0294
15.1649
11.8263
11.3124
8.33287
6.28204
5.20748
4.88071
5.13517
5.7735
5.81493
13.8297
9.78251
8.49787
6.37258
5.08716
4.40864
4.27972
4.44973
5.3156
5.78493
12.6028
8.40675
7.06248
5.30834
4.33913
3.91379
3.80383
4.16732
5.12531
5.56307
12.5852
8.76255
7.28544
5.53261
4.43273
3.95613
3.8667
4.2686
4.88519
5.35272
12.564
9.4058
8.40635
6.164
5.05564
4.45635
4.36498
4.57836
5.17816
5.18788
7.30462
7.112
8.61504
9.67919
11.4865
13.074
12.4051
11.3722
11.8173
10.4946
6.25924
4.77353
5.39386
6.65158
8.21905
8.7058
8.7866
8.32985
7.79469
7.38198
7.05692
4.56875
5.06834
6.14625
7.22284
8.0671
7.97527
7.19578
7.34275
6.66962
8.35742
5.14309
5.25358
6.5239
7.35371
7.6878
7.70783
6.74827
6.13708
6.27176
9.45435
5.82266
6.59334
7.8054
7.89813
7.90518
6.72601
5.67589
5.72213
5.56611
10.592
7.26092
7.88912
8.46801
7.48666
6.2443
5.60081
5.15443
4.93527
5.02059
9.52287
6.7197
6.82166
6.26081
5.49128
5.07809
4.84272
4.62407
4.65286
4.7583
8.71431
6.01615
5.36021
4.80048
4.39478
4.26757
4.37796
4.41578
4.71738
4.67941
9.57846
5.99983
5.0136
4.61964
4.17158
4.17664
4.18223
4.61045
4.70761
4.93141
9.84448
5.4839
4.88759
4.53063
4.43447
4.25353
4.37419
4.58096
4.90859
4.80226
16.9738
13.9549
14.896
14.7607
13.8552
13.8507
15.3927
17.4308
16.7202
13.8652
13.4204
8.90198
8.53849
8.79711
9.05412
9.15456
10.1616
10.9655
10.0455
9.68781
12.6571
8.09522
7.14665
7.04709
7.01066
7.47199
8.16775
8.77256
8.97082
8.36472
11.3044
7.95213
6.69181
6.45724
6.39145
6.31533
7.25372
8.11803
7.91574
8.05018
10.2163
7.78265
6.88295
6.40365
6.19056
6.56387
7.01202
7.76671
8.80367
8.21188
10.487
8.54249
7.32965
6.81125
6.75409
6.77764
7.45248
8.40603
8.70535
8.71974
11.6743
9.13659
7.99842
7.1906
7.1085
7.38635
7.47163
7.37553
8.06403
7.73077
10.8977
7.98884
7.22074
6.93364
7.2068
7.23849
6.91869
7.37058
7.35019
6.89523
9.82879
7.5401
6.83806
6.72795
6.65042
6.6325
6.8814
7.20496
7.08151
6.4339
8.97757
6.89724
6.98304
6.7225
6.65269
6.71818
7.03427
7.37316
7.19628
5.87614
4.62778
4.02521
4.56795
4.99241
6.06088
6.63019
6.72305
6.66341
7.54589
7.91765
3.53546
2.64602
2.62258
3.07585
3.64553
4.07662
4.55607
4.681
4.56322
4.65519
3.92101
2.576
2.54968
2.72241
2.97886
3.36405
3.52538
3.69
4.02501
3.90396
4.3688
2.98523
2.67865
2.79235
3.02964
3.11485
3.33704
3.56957
3.55353
3.67053
4.49713
3.28967
3.02544
3.13757
3.32186
3.56358
3.65307
3.63697
3.84697
3.65382
4.46495
3.48913
3.4426
3.48772
3.85619
4.07336
4.18094
4.3654
4.22091
4.07699
4.73268
3.91587
3.72481
3.76147
4.09489
4.48948
4.79745
4.86233
4.90942
4.87122
5.37449
4.77455
4.11773
3.88509
4.20572
4.66383
4.93866
5.03637
5.44495
5.71709
7.11294
5.55956
4.36092
4.05977
4.24251
4.75431
4.88259
5.13326
5.34642
5.32505
7.60804
5.1325
4.13054
3.94424
4.30376
4.68326
4.94479
4.96214
5.29584
4.51299
20.6484
14.997
14.1657
13.4584
12.849
12.8992
13.1897
13.2221
12.4273
10.3189
14.0286
9.00386
8.29333
7.92883
7.50542
7.33131
7.55783
7.66372
6.99045
6.08014
11.7068
7.56213
7.02657
6.85829
6.4946
6.32711
6.26454
5.95955
5.73085
4.78175
10.1682
6.59984
6.46201
6.37756
6.49814
6.36651
6.11749
5.86114
5.13472
4.2751
9.39259
6.23383
5.96032
6.32752
6.61333
6.69068
6.72468
6.26488
5.51624
4.47129
8.9974
5.83024
5.6328
5.7619
5.98648
6.2232
6.60815
6.8837
6.38013
5.3019
9.11567
5.55513
4.99801
5.24766
5.33928
5.47926
6.16871
6.76605
6.85953
6.51402
8.81898
5.33567
4.49339
4.56633
4.9007
5.36737
5.5263
6.22663
6.86704
6.94258
8.52083
5.09951
4.00455
3.85087
4.48594
4.95223
5.80193
6.24522
6.70653
6.53252
7.66773
4.82855
3.61901
3.30567
3.62189
4.7477
5.88885
6.54098
7.05288
5.66277
2.92421
3.46583
4.3319
4.51045
5.05461
5.10624
5.19018
5.00342
5.40296
4.80887
1.76419
1.95176
2.18278
3.15767
3.54584
3.4812
3.67073
3.63655
3.21441
3.11811
1.30574
1.32417
2.23943
2.87177
3.32642
3.60538
3.37936
3.15326
3.16821
2.73292
1.47723
1.51193
1.92598
2.63211
3.12795
3.17873
3.46633
3.29467
2.813
2.6856
1.59061
1.41131
1.98508
2.50101
2.853
3.29737
3.4324
3.36878
3.07052
2.78721
1.66722
1.62988
1.98518
2.45422
2.98874
3.11886
3.71289
3.80775
3.24856
3.14662
2.08526
1.65077
2.06064
2.55098
2.83929
3.32748
3.77882
3.93762
3.68903
3.53509
2.06215
1.93536
2.0969
2.41286
2.78459
3.21307
3.58071
3.96716
3.90044
3.67535
2.78979
1.90959
2.24048
2.35547
2.71199
3.00888
3.50126
3.69578
3.81932
3.56085
2.43089
1.97629
2.05389
2.33275
2.6338
3.21812
3.70188
3.95547
3.90442
3.26197
35.6128
26.7845
20.817
17.043
13.0152
9.18378
7.42889
6.44874
6.33969
5.7858
25.6208
14.9156
12.118
10.0027
7.55556
5.4754
4.84046
4.41358
3.51334
3.38939
19.3304
11.6348
10.8486
9.33153
6.73029
5.36885
4.40756
3.80143
3.45976
2.98244
13.4568
9.27316
9.0349
8.59319
6.78748
5.10205
4.51302
4.00202
3.07413
2.90509
10.0613
6.65135
7.22654
7.32951
6.53426
5.69738
4.77174
4.09361
3.36147
2.8556
8.42479
5.73834
5.54549
6.13355
6.18334
5.73947
5.3682
4.62262
3.37611
2.91305
7.21247
4.74924
4.76712
4.86226
5.22237
5.60979
5.56444
4.79065
3.59372
2.98785
6.8697
3.92254
3.76945
3.63631
3.92425
4.49063
5.10791
4.8507
3.7038
3.28198
5.81761
3.64545
2.74686
2.95243
2.94435
3.48878
4.2656
4.41992
3.84723
3.58308
6.3071
3.2542
3.00757
2.90793
3.01053
3.43284
4.0246
4.12924
3.92779
3.5008
-5.41723
-2.97449
-1.57025
-1.14323
-0.842771
-0.66548
-0.19953
-0.419902
-0.375154
-0.43821
-2.57025
-1.2166
-0.577448
-0.354486
0.0375252
-0.0305627
0.0476101
0.108202
-0.0601752
-0.0415831
-1.45304
-0.469865
0.149534
0.176831
0.284793
0.369782
0.38889
0.350792
0.190275
0.185311
0.248271
0.486407
0.303919
0.646436
0.698736
0.764496
0.717297
0.649432
0.584328
0.366809
0.752831
0.622068
1.07092
0.995388
1.05676
1.00178
1.00859
1.11507
0.776534
0.637757
1.3001
1.32129
1.18116
1.39834
1.29539
1.26221
1.24396
1.1448
1.22503
0.795702
1.37354
1.23845
1.68383
1.66801
1.57354
1.39819
1.21025
1.44242
1.16547
0.947341
1.69422
1.46322
1.77136
1.91107
1.87394
1.50112
1.54017
1.18519
1.31117
0.980297
1.6019
1.45304
1.53966
2.06425
1.98219
1.9729
1.23844
1.37374
0.939112
0.810651
1.80441
1.40018
1.66782
1.98156
2.26443
1.84104
1.51804
1.1107
0.724828
0.717571
14.8554
10.4927
8.33799
6.64098
5.45432
4.98635
4.52604
3.87019
3.52842
3.13542
10.3233
6.81492
5.35395
3.83872
3.01997
2.66711
2.6535
2.60324
2.53835
2.17894
8.57296
5.85944
4.35072
3.26018
2.5101
2.20889
2.31669
2.6162
2.53703
1.96881
7.06158
4.77578
3.70487
2.72422
2.13848
1.88674
1.99332
2.34222
2.64555
1.91809
6.1938
4.13279
3.04684
2.36421
1.86354
1.60312
1.70578
2.11609
2.39718
1.92427
6.26012
3.59444
2.86622
2.24633
1.67309
1.47505
1.51608
1.87593
2.24897
1.86527
5.82598
3.68385
2.96369
2.17188
1.68309
1.36139
1.54509
1.82839
2.13281
1.87119
5.50195
3.66993
2.91636
2.21889
1.60924
1.48648
1.45665
1.87929
2.18694
1.88612
3.96187
3.21522
2.63958
2.03708
1.6009
1.35292
1.58374
1.93489
2.19635
2.03183
3.08818
2.50005
2.30659
1.81661
1.4998
1.43259
1.64958
2.0838
2.368
1.93071
-9.77608
-6.58938
-5.31312
-4.68656
-3.81389
-3.29476
-2.82577
-3.12266
-3.52616
-2.75059
-7.77415
-4.88179
-3.98931
-3.12676
-2.3283
-1.77092
-1.71704
-2.07828
-1.99283
-1.74526
-7.19167
-4.79352
-3.8884
-3.30213
-2.26448
-1.7701
-1.55495
-1.5145
-1.74515
-1.13655
-5.68307
-4.02176
-3.56833
-3.08436
-2.27596
-1.46702
-1.30181
-1.25297
-0.889581
-0.862589
-4.21303
-2.9609
-2.6883
-2.3419
-1.8147
-1.31235
-0.997713
-0.712631
-0.760375
-0.614565
-3.38962
-2.17939
-1.77042
-1.66397
-1.43669
-0.940965
-0.745568
-0.63032
-0.449621
-0.51407
-2.65007
-1.53962
-1.40225
-1.16884
-1.08992
-0.713802
-0.616649
-0.39215
-0.43228
-0.4619
-2.35495
-1.42971
-1.06583
-0.980414
-0.790272
-0.627026
-0.503654
-0.425192
-0.439078
-0.485746
-2.33869
-1.2533
-0.989381
-0.808043
-0.685075
-0.552094
-0.541843
-0.521945
-0.564417
-0.611181
-2.24063
-1.15557
-0.861687
-0.708097
-0.614323
-0.576888
-0.681494
-0.69459
-0.805595
-0.690643
6.81276
4.20907
3.45071
3.26142
2.49274
1.33917
0.517608
0.0945967
0.0134879
0.132463
5.8281
3.59272
3.1973
2.35913
1.33129
0.614575
-0.0951665
-0.259892
-0.272014
-0.270724
5.08976
3.17813
2.34431
1.6164
0.828995
0.119042
-0.0972965
-0.409904
-0.495583
-0.439194
3.79685
2.04099
1.4493
0.937701
0.376211
0.0452107
-0.38079
-0.50985
-0.546498
-0.552978
2.19443
1.18789
0.894053
0.374636
0.0327633
-0.289473
-0.423952
-0.561074
-0.623497
-0.616233
1.38954
0.656198
0.0723142
-0.148792
-0.378602
-0.487909
-0.537038
-0.650024
-0.708901
-0.662896
0.079904
-0.362701
-0.575659
-0.845563
-0.944003
-0.744252
-0.775321
-0.801716
-0.765171
-0.799638
-0.535706
-0.907196
-1.32731
-1.53663
-1.40661
-1.19491
-1.00804
-0.910232
-0.988592
-0.850804
-1.17354
-1.23887
-1.54792
-1.74395
-1.72927
-1.58672
-1.28579
-1.27165
-1.04846
-0.995408
-1.17925
-1.14696
-1.49278
-1.70813
-1.86457
-1.72466
-1.57202
-1.2894
-1.07897
-0.872048
-15.2046
-11.492
-11.2673
-11.7274
-12.3114
-11.9575
-11.7502
-11.2659
-9.51452
-8.71062
-10.6174
-6.99559
-6.55983
-6.60495
-6.25047
-6.22577
-6.22238
-5.50646
-5.03146
-4.94806
-9.31934
-5.81318
-5.43701
-5.5339
-5.39859
-5.05968
-4.68892
-4.26232
-4.07347
-4.52274
-8.50128
-5.18034
-4.89282
-4.86605
-4.59535
-4.11167
-3.75863
-3.55911
-3.78885
-4.25459
-8.28921
-4.8885
-4.44071
-4.33683
-4.00391
-3.44806
-3.11243
-3.1674
-3.50168
-3.84118
-8.16301
-4.70529
-4.13999
-3.97585
-3.8058
-3.02923
-2.82023
-2.92067
-3.2174
-3.58663
-9.18062
-5.02932
-4.01678
-4.00543
-3.74145
-3.11579
-2.75876
-2.7372
-3.13261
-3.43555
-10.5158
-6.65507
-4.92314
-4.21954
-4.12341
-3.45837
-2.76979
-2.97834
-3.17489
-3.35577
-10.1388
-8.4177
-5.87653
-4.69014
-4.34501
-3.47105
-3.44498
-3.29957
-3.50797
-3.56534
-8.65656
-5.84649
-4.94131
-4.22781
-3.60315
-3.5306
-3.49268
-3.68351
-3.84194
-3.46335
1.56664
0.593769
0.224456
-0.245768
-1.27247
-2.09451
-3.08554
-3.96698
-3.16423
-2.63156
0.459953
-0.158862
-0.446622
-0.890643
-1.35066
-1.84782
-2.62147
-3.1522
-2.44774
-2.11411
-0.868925
-0.926751
-1.28785
-1.41497
-1.67443
-2.01649
-2.58217
-3.09134
-2.49229
-2.04873
-2.67445
-2.12751
-1.96082
-2.03784
-1.98
-2.12574
-2.79924
-2.98181
-2.26727
-2.01837
-4.22171
-2.87194
-2.71079
-2.24618
-2.02396
-2.32868
-2.8635
-2.7323
-2.26589
-2.06982
-5.26026
-3.14196
-2.48618
-2.18205
-2.03202
-2.26244
-3.09349
-2.65869
-2.20916
-2.35619
-5.17855
-2.81646
-2.3835
-2.01031
-1.8287
-2.50004
-3.12515
-2.48696
-2.31297
-2.30183
-5.3135
-2.98634
-2.12287
-1.77388
-1.9469
-2.48645
-3.06393
-2.45849
-2.16063
-2.12418
-4.05739
-3.00838
-1.98699
-1.84461
-1.99681
-2.45233
-2.88082
-2.46694
-2.13703
-1.89679
-3.63528
-2.37653
-1.94245
-1.82934
-1.89929
-2.21516
-2.62106
-2.37285
-1.87239
-1.64838
-18.5508
-14.0795
-13.1734
-13.3175
-13.2432
-13.0468
-12.1845
-12.8393
-14.7475
-12.3024
-12.6653
-8.84978
-8.79765
-8.81915
-8.47068
-7.56071
-7.09056
-7.63993
-8.93255
-8.21113
-11.6039
-8.72233
-8.86587
-8.85969
-7.79173
-6.50202
-5.7381
-6.2729
-7.85084
-7.19289
-12.6257
-9.97145
-9.57368
-8.35406
-6.76801
-5.26222
-4.74046
-5.46155
-6.62858
-5.80936
-15.0073
-10.446
-8.06204
-6.83764
-5.36629
-4.24785
-3.98208
-4.80666
-5.7501
-4.65794
-16.1976
-10.3525
-7.8542
-6.16255
-4.40574
-3.42084
-3.60875
-4.76694
-4.81077
-4.50441
-18.9414
-10.7855
-8.16313
-5.2812
-3.56235
-3.02574
-3.75635
-4.65039
-4.49679
-4.50189
-20.3059
-10.4301
-7.29349
-4.29503
-3.08285
-3.08835
-3.78517
-5.00431
-4.20844
-4.0651
-10.8416
-8.64156
-5.56213
-3.65646
-2.94451
-3.02364
-4.16498
-5.04433
-4.36868
-4.12423
-9.89204
-5.736
-4.11815
-2.97601
-2.6225
-2.92358
-3.8894
-5.04103
-4.45157
-3.94909
0.966378
-0.657601
-2.08957
-2.82036
-4.2165
-4.4655
-5.24013
-5.52065
-6.00452
-5.94522
-0.476444
-1.3188
-1.65553
-3.31992
-3.58812
-3.91974
-4.20437
-4.11497
-4.22433
-4.04124
-0.874525
-1.39773
-2.51807
-2.94481
-3.50473
-3.89666
-4.13157
-3.94879
-4.10609
-4.06211
-1.91302
-1.94645
-2.22208
-2.69457
-2.85486
-3.01838
-3.30572
-3.48093
-3.9246
-4.30469
-2.40094
-2.04116
-2.45346
-2.83061
-2.52266
-2.44277
-2.63728
-3.07006
-3.70445
-4.62139
-2.24918
-1.9192
-2.72098
-2.57869
-2.23908
-2.06741
-2.38671
-2.86354
-3.69276
-4.28028
-2.96082
-2.05352
-2.6804
-2.6558
-2.01343
-2.10893
-2.49149
-3.10083
-3.79399
-4.15396
-2.51676
-2.61617
-3.33538
-2.55263
-2.20087
-2.4057
-2.73734
-3.51173
-4.17227
-3.95426
-2.66167
-2.64493
-3.73188
-2.5733
-2.59777
-2.56179
-3.31818
-4.09836
-4.18544
-3.9492
-2.41264
-3.04173
-2.66664
-2.46767
-2.319
-2.74333
-3.43316
-4.47676
-4.20426
-3.59261
-26.4285
-23.5468
-20.8152
-14.6053
-11.7011
-11.9084
-14.4941
-18.8343
-20.0507
-14.368
-21.8851
-12.5156
-8.44773
-6.80155
-6.06061
-7.19017
-8.23392
-9.81601
-11.4041
-9.06461
-18.6181
-9.17225
-6.55283
-5.59639
-6.06015
-7.25553
-7.75093
-8.77536
-9.21265
-7.77215
-15.7452
-7.64917
-6.20246
-5.78142
-7.39647
-8.12026
-7.09695
-7.10608
-7.49014
-6.859
-10.21
-6.12828
-5.59451
-6.9101
-8.17184
-6.33041
-5.36935
-5.59007
-6.15929
-5.84297
-6.93674
-4.30343
-5.17541
-6.41172
-6.54036
-4.63645
-4.34588
-4.60553
-5.04744
-5.03809
-6.13774
-4.04206
-4.70321
-6.67279
-5.26796
-4.16699
-4.13175
-4.22388
-4.61769
-4.87981
-5.90287
-4.16653
-5.61275
-6.79238
-4.90493
-4.27223
-4.0831
-4.51122
-5.19341
-5.17769
-5.94245
-4.41935
-6.27821
-6.21282
-4.96734
-4.16812
-4.67527
-5.19819
-5.92564
-5.95049
-4.97893
-4.55619
-5.45223
-5.31873
-4.35566
-4.40281
-4.85653
-5.99227
-6.92803
-6.17062
-7.07013
-6.20789
-5.46766
-4.44196
-4.12132
-4.02159
-4.38498
-5.03892
-6.48058
-7.82692
-4.1897
-3.06899
-2.78756
-2.61084
-2.5066
-2.79514
-3.36101
-4.47008
-5.14532
-5.40941
-4.44143
-3.0635
-2.75145
-2.53439
-2.5295
-3.05802
-4.70971
-6.4623
-6.55342
-7.20815
-3.92464
-2.9783
-2.86429
-2.61013
-2.7589
-4.14514
-6.23921
-7.56213
-8.04178
-8.46684
-4.02037
-3.01889
-2.88427
-2.94129
-3.3192
-4.77179
-6.39231
-6.97561
-7.69578
-7.3899
-4.03201
-3.03659
-3.38429
-3.35891
-3.94662
-5.28176
-5.9029
-5.38406
-5.19098
-4.96107
-4.56032
-3.47074
-3.67898
-4.00394
-4.48094
-5.24899
-5.46601
-4.40418
-4.11886
-4.06048
-4.92254
-3.7759
-4.31799
-4.42308
-5.03182
-5.30922
-5.16014
-4.1544
-3.99741
-3.86503
-5.9876
-4.31067
-4.64495
-4.83418
-5.38737
-5.4188
-5.02956
-4.36073
-3.9152
-3.87794
-6.12969
-4.3544
-4.47203
-4.75874
-5.36132
-5.52369
-5.38517
-4.57499
-4.09713
-3.91125
-20.1374
-16.122
-13.1027
-10.4221
-8.44548
-7.8764
-8.1068
-9.28461
-12.8225
-14.8835
-14.4654
-9.68693
-8.30684
-6.96737
-6.07673
-5.99744
-6.9112
-8.97365
-10.61
-9.44253
-15.0972
-10.1449
-8.82253
-7.50803
-6.49247
-6.72622
-7.93799
-9.91149
-11.5725
-10.2388
-10.6305
-8.14028
-7.71579
-6.8536
-5.96445
-5.94013
-6.89988
-8.65761
-10.7799
-11.5029
-9.09397
-6.52822
-5.94528
-5.43675
-4.90402
-5.19317
-6.15053
-7.19302
-9.3782
-11.2545
-9.11824
-6.35964
-5.53738
-4.98553
-4.78434
-4.85467
-5.35692
-5.56897
-6.14769
-7.29265
-10.6047
-7.05216
-5.82131
-5.17204
-5.13178
-4.7548
-5.06814
-4.81545
-4.8006
-4.86657
-11.8429
-8.33492
-6.73419
-5.62799
-5.9749
-5.34016
-4.92936
-4.86655
-4.79349
-4.72794
-13.1862
-9.60367
-6.70373
-6.0974
-7.38595
-6.61976
-5.57167
-5.21766
-5.09472
-5.26532
-13.6157
-8.80667
-6.30234
-6.43928
-8.62358
-8.79834
-6.58236
-5.78337
-5.63786
-5.58328
-7.25043
-6.56829
-7.58007
-6.64874
-6.55231
-6.90443
-7.87412
-9.35839
-12.2909
-12.754
-6.75429
-6.24425
-6.12129
-5.83421
-5.90202
-6.20726
-6.66997
-7.60693
-8.36308
-7.05956
-8.98052
-7.83326
-7.25465
-6.02273
-5.66062
-5.81815
-6.40329
-7.20625
-7.58919
-6.81036
-4.97651
-4.20187
-4.44738
-4.64409
-4.81545
-5.28844
-5.81707
-6.42819
-7.73447
-7.70658
-3.9411
-3.40888
-3.87894
-4.30335
-4.67096
-5.11894
-5.51207
-6.07683
-7.21177
-8.94384
-3.88359
-3.33695
-3.57233
-4.01123
-4.74972
-5.30872
-5.61973
-5.45571
-6.71526
-7.59738
-5.18117
-3.51659
-3.49486
-4.11124
-4.93311
-5.7964
-6.03147
-5.73202
-5.85088
-7.2015
-8.86672
-5.71898
-4.27891
-4.38804
-5.90182
-7.37447
-6.98288
-6.22262
-6.29271
-6.37021
-17.2637
-7.67143
-5.14112
-5.11895
-8.24419
-9.59126
-8.63547
-7.52858
-7.0357
-7.19375
-8.87176
-4.82176
-3.87343
-5.63373
-9.86918
-10.0438
-8.7384
-8.59742
-8.57267
-7.81237
-16.3601
-15.7838
-13.0711
-11.0352
-9.97291
-9.33972
-9.60772
-13.4385
-18.86
-10.724
-15.5397
-12.6572
-10.8837
-9.71223
-8.52774
-7.58465
-8.02742
-10.7727
-9.83517
-6.45659
-14.5768
-9.71368
-9.18346
-8.61396
-8.13454
-7.82038
-8.46621
-9.90457
-8.49758
-6.17326
-8.32985
-6.98847
-7.58973
-6.91048
-6.62654
-6.53867
-6.73192
-7.77791
-7.94088
-5.51011
-6.59025
-5.73196
-6.29668
-5.56656
-5.41327
-5.85732
-6.12148
-7.07307
-8.15974
-5.68816
-5.92807
-5.00354
-5.28453
-4.60845
-4.68247
-5.43789
-6.47193
-7.19545
-8.66577
-6.97677
-5.76514
-4.85153
-5.03646
-4.35946
-4.41927
-5.79601
-7.73318
-8.78902
-9.18637
-10.6369
-6.35951
-7.56427
-5.42491
-4.28842
-4.89786
-7.46748
-9.73495
-10.7381
-12.1426
-14.4208
-11.4314
-9.40099
-5.20379
-4.23844
-6.00916
-8.86581
-9.64461
-10.2324
-12.4118
-13.6242
-14.3297
-4.70907
-3.26802
-3.77901
-6.28204
-8.33189
-6.41576
-6.75377
-8.88157
-9.99969
-6.80277
-6.93024
-6.11247
-5.72411
-5.37093
-5.29806
-6.88815
-9.25388
-9.14479
-6.01351
-5.86903
-5.16733
-5.20192
-5.00882
-4.5386
-5.31008
-8.52387
-7.31728
-4.12712
-3.44359
-4.81447
-4.62079
-5.35927
-4.80562
-5.30799
-8.28711
-10.5556
-5.45452
-3.40368
-3.1676
-4.21462
-4.23567
-4.55525
-3.58348
-3.67277
-4.72874
-6.08286
-3.91473
-2.82472
-3.69319
-3.98644
-3.63275
-4.23969
-3.03901
-2.82226
-3.93251
-4.96862
-3.53332
-3.28946
-4.71069
-4.12094
-3.7693
-4.90392
-3.24717
-2.88523
-3.60955
-5.41167
-4.32874
-3.8188
-4.25663
-4.80913
-4.8803
-6.61831
-3.75849
-3.14336
-4.24451
-6.83823
-5.85743
-4.89993
-4.80288
-6.23632
-6.9306
-6.36013
-3.39787
-3.12066
-5.02803
-8.97767
-6.9693
-5.89428
-5.68867
-8.12666
-5.45587
-3.35656
-2.58614
-2.80648
-5.71188
-9.11201
-5.96898
-5.40592
-5.79256
-6.67164
-3.36971
-2.55455
-2.3223
-3.15547
-5.68363
-7.27631
-4.51707
-4.63183
-5.2403
-20.5374
-17.4985
-14.427
-10.7744
-8.78817
-8.56043
-9.57532
-9.47751
-9.39656
-9.934
-15.8291
-14.6592
-12.7958
-8.21553