/*--------------------------------*- C++ -*----------------------------------*\
| =========                 |                                                 |
| \\      /  F ield         | OpenFOAM: The Open Source CFD Toolbox           |
|  \\    /   O peration     | Version:  2406                                  |
|   \\  /    A nd           | Website:  www.openfoam.com                      |
|    \\/     M anipulation  |                                                 |
\*---------------------------------------------------------------------------*/
FoamFile
{
    version     2.0;
    format      ascii;
    arch        "LSB;label=32;scalar=64";
    class       volScalarField;
    location    "0.2";
    object      magR;
}
// * * * * * * * * * * * * * * * * * * * * * * * * * * * * * * * * * * * * * //

dimensions      [0 2 -2 0 0 0 0];

internalField   uniform 0;

boundaryField
{
    walls
    {
        type            calculated;
        value           nonuniform List<scalar> 
2000
(
1.50058e-06
2.22111e-06
2.98734e-06
3.63301e-06
4.03443e-06
4.08978e-06
3.78274e-06
3.16691e-06
2.37717e-06
1.62113e-06
8.90547e-06
1.59263e-05
2.36858e-05
2.95318e-05
3.21052e-05
3.05413e-05
2.47147e-05
1.61585e-05
8.25636e-06
3.60124e-06
2.86718e-05
5.8121e-05
9.08689e-05
0.000112889
0.000116784
0.000100397
6.93126e-05
3.74504e-05
1.66053e-05
7.54783e-06
5.72549e-05
0.000114551
0.000182626
0.000229577
0.000235244
0.000201734
0.000148141
9.6652e-05
5.79917e-05
3.29542e-05
8.44386e-05
0.000150394
0.000244645
0.000332077
0.000367698
0.00034176
0.000277466
0.000205018
0.000138197
8.14428e-05
0.000143342
0.000219023
0.000312212
0.000412456
0.000480885
0.000486575
0.000426234
0.000325948
0.000223528
0.000142728
0.000184695
0.000332738
0.000491251
0.000611023
0.000661671
0.000631375
0.000537434
0.000408604
0.000284638
0.000192606
0.00033537
0.000628338
0.00090031
0.00104897
0.00107404
0.000984277
0.000804987
0.000581053
0.000370262
0.000215029
0.000521075
0.000936964
0.00136326
0.00168761
0.00173709
0.0014818
0.00107823
0.000690449
0.00037093
0.000150552
0.000723898
0.00133274
0.00195378
0.00232012
0.00226719
0.00191362
0.00142441
0.000960874
0.00052435
0.000202209
0.00112082
0.0019541
0.00278693
0.00335929
0.00348857
0.00316208
0.00247725
0.00172735
0.00102609
0.000469108
0.00145662
0.00247368
0.0035549
0.00447968
0.00500351
0.00490672
0.00419405
0.00311396
0.00193892
0.000934879
0.00157093
0.0026244
0.00380501
0.00486138
0.00558526
0.00573416
0.00520043
0.00405666
0.00253515
0.00127977
0.00135531
0.00256224
0.00406598
0.00546706
0.00642745
0.00660091
0.00591474
0.00461053
0.00302923
0.00166794
0.00107761
0.00215253
0.00350026
0.00475462
0.00565073
0.00595387
0.00567636
0.00494961
0.00358094
0.00198862
0.000625076
0.00121594
0.00189414
0.00259773
0.00321417
0.00363062
0.00368043
0.00317687
0.00210011
0.000956977
0.000749178
0.00134482
0.00179579
0.00207291
0.00226679
0.0024225
0.00234104
0.00187214
0.00112844
0.000480688
0.00101932
0.00189974
0.00257795
0.00269376
0.00236039
0.00204848
0.00189159
0.00166077
0.00110507
0.000545939
0.00066574
0.0013812
0.00241054
0.00320753
0.00357499
0.00349971
0.00310356
0.00240062
0.00137316
0.000648239
0.000602434
0.00106614
0.00189896
0.00298493
0.00402424
0.00452548
0.00422341
0.0030781
0.00172966
0.000779137
0.00111036
0.00193021
0.00301006
0.00409412
0.0054155
0.00682197
0.00658785
0.00479018
0.00267726
0.00131662
0.00268247
0.00377071
0.00559011
0.00808886
0.0113179
0.0136878
0.0123285
0.0087769
0.0051498
0.00303755
0.00439771
0.00579996
0.00871515
0.0131972
0.0178462
0.0197873
0.0168356
0.0116331
0.00701148
0.00440943
0.0048716
0.00666419
0.00853164
0.0119148
0.0164406
0.018608
0.0159474
0.0107791
0.00637177
0.00380382
0.00424049
0.00667251
0.00856382
0.00970482
0.0110105
0.0120291
0.010747
0.00742123
0.00435053
0.00244234
0.00269049
0.00494079
0.00744273
0.00873537
0.00875853
0.00810268
0.00685206
0.00507465
0.00338276
0.00205257
0.00179613
0.0037256
0.00640102
0.00826608
0.00837702
0.00757042
0.00659322
0.00562141
0.00440136
0.00292218
0.00169869
0.00341423
0.00597526
0.00802077
0.00806723
0.00743242
0.00732122
0.00723996
0.00591995
0.00389799
0.00279408
0.00530724
0.00918995
0.013814
0.0170832
0.016763
0.0145198
0.0117052
0.00799123
0.00454617
0.00355613
0.00641577
0.0112428
0.0178162
0.025682
0.0323669
0.0321169
0.0241722
0.0136751
0.00649597
0.000805226
0.00111313
0.00133788
0.00163288
0.00355693
0.0132813
0.0244139
0.0260482
0.0184515
0.0101655
4.62839e-06
1.91289e-05
0.000282297
0.00103922
0.00086897
0.00026
0.00355728
0.0134064
0.0130152
0.00873403
5.30975e-06
7.68781e-05
0.0012294
0.00267083
0.00107112
0.0012114
0.00113029
0.0024182
0.00552277
0.00415166
0.0011088
0.000805545
0.0030579
0.00718108
0.00498818
0.00331663
0.00311874
0.00270459
0.00297187
0.00202814
0.00378775
0.0026109
0.00451998
0.0150733
0.0260586
0.01969
0.00742531
0.00128023
0.000337328
0.000969769
0.00513112
0.00216765
0.000871137
0.00511179
0.0324181
0.0704658
0.060331
0.0218519
0.00238007
0.00132751
0.00793629
0.00619128
0.00230631
6.24348e-05
0.00426774
0.0385175
0.0586096
0.019464
0.000515629
0.00210661
0.0100408
0.0146335
0.010615
0.00396429
0.000190475
0.010336
0.0355769
0.0115669
1.2523e-05
0.00133259
0.012142
0.020584
0.017323
0.00745211
0.000985156
0.0176033
0.0732194
0.0311212
0.00062706
0.000326307
0.0359411
0.0370884
0.0237565
0.00816763
0.00208904
0.0175976
0.0792537
0.0651503
0.013667
0.000427913
0.103526
0.115087
0.077097
0.0467694
0.0321253
0.0250741
0.0290898
0.0369635
0.0301349
0.0164415
0.0205529
0.0250527
0.0317834
0.0268671
0.0295131
0.0275487
0.0147138
0.00787574
0.00500527
0.0052263
0.00268144
0.00106358
0.00407727
0.00484682
0.00482262
0.0581518
0.0254089
0.000522971
0.000126348
0.000136216
0.00808269
0.0346566
0.0241252
0.0199955
0.17048
0.270403
0.245038
0.0803747
0.00116197
0.00407796
0.00202762
0.0665568
0.677187
0.363215
0.21939
0.271579
0.334486
0.376557
0.229017
0.0442778
0.00232968
0.25887
1.20419
0.963477
0.731277
0.586719
0.409148
0.285091
0.250157
0.271298
0.00603202
0.398255
1.31807
1.30196
0.805182
0.299817
0.0494978
0.00104859
0.00816531
0.0671005
0.223718
0.722417
0.866267
0.641314
0.346781
0.19261
0.278488
0.636973
0.943471
0.90759
0.51033
0.703943
0.464759
0.28353
0.255768
0.613407
1.25041
1.28542
0.854819
0.548409
0.288534
0.752194
1.35705
1.42311
1.55403
1.84737
1.30764
0.631806
0.308579
0.223314
9.92847e-07
1.72284e-06
2.75899e-06
3.80137e-06
4.39408e-06
4.34192e-06
3.81278e-06
3.04914e-06
2.21652e-06
1.48778e-06
2.01462e-06
5.10119e-06
1.11828e-05
2.05272e-05
3.02536e-05
3.54564e-05
3.32422e-05
2.51225e-05
1.54109e-05
8.39966e-06
1.69841e-05
3.03901e-05
5.17662e-05
8.02026e-05
0.000109373
0.000124861
0.000113532
7.92967e-05
4.41899e-05
2.33261e-05
3.39238e-05
5.78863e-05
9.63834e-05
0.0001446
0.000187327
0.000202429
0.000178878
0.000130318
8.21405e-05
4.88895e-05
5.63553e-05
0.00010175
0.000181416
0.000279962
0.000360404
0.000392418
0.000362652
0.000282185
0.000181145
9.74096e-05
7.143e-05
0.00018512
0.000347406
0.000530813
0.000666394
0.000713695
0.000657851
0.000510662
0.000325688
0.000173075
5.4017e-05
0.000176876
0.000391896
0.000649965
0.00082149
0.000836147
0.00071193
0.000512168
0.00031838
0.000177371
0.00010354
0.000264847
0.000561443
0.000928432
0.00116189
0.00117641
0.00100257
0.000738629
0.00048492
0.00028517
0.000228214
0.000504022
0.000919551
0.00139368
0.00172046
0.00176782
0.00155789
0.00119666
0.000792053
0.000459495
0.000309474
0.000677856
0.00120475
0.00175085
0.00212128
0.0022117
0.00199916
0.00156129
0.00105534
0.000650547
0.00048099
0.00103769
0.00184685
0.00269067
0.0032874
0.00341426
0.00304462
0.00236372
0.00162786
0.0010339
0.000726813
0.00142692
0.00237427
0.00330655
0.00402018
0.00425424
0.00389302
0.00309583
0.00217841
0.00138021
0.000948381
0.00158825
0.00234999
0.00306672
0.00359607
0.00378832
0.00355841
0.00297998
0.0022207
0.0014493
0.00140513
0.00202182
0.00258961
0.00316679
0.00367917
0.00387185
0.00359775
0.00287411
0.00198064
0.00118329
0.0016334
0.00209288
0.00261072
0.00330104
0.00387865
0.0039672
0.00355426
0.00270832
0.0017347
0.000937692
0.00194718
0.00223448
0.00254133
0.00303358
0.00347953
0.00355501
0.00313251
0.00228426
0.00133637
0.00064636
0.00238594
0.00317295
0.00363129
0.00398455
0.00416533
0.00415288
0.00374143
0.0028054
0.00164146
0.000786461
0.00125806
0.00218763
0.00304383
0.00372544
0.00407343
0.00403257
0.00363452
0.00283437
0.00174411
0.000965037
0.000517995
0.000986432
0.0015761
0.00212008
0.00243355
0.00241426
0.00212192
0.00170809
0.00119006
0.000670529
0.000271629
0.000452735
0.000747205
0.00115774
0.00158846
0.00179423
0.00159563
0.00119089
0.000841272
0.000551455
0.000708538
0.00116315
0.0018667
0.00257034
0.00332584
0.00378773
0.00324374
0.00202027
0.0012256
0.000856694
0.00182489
0.00332998
0.00565404
0.00679561
0.00640655
0.00613687
0.0060193
0.00470273
0.00317811
0.00235703
0.00273358
0.00470468
0.00721896
0.00852024
0.0077619
0.00684818
0.00762099
0.00754806
0.00614022
0.00459258
0.00204482
0.00345334
0.00525722
0.0067438
0.00745721
0.00726541
0.006834
0.00680082
0.00637333
0.00512777
0.00158776
0.00267192
0.0042122
0.00575676
0.00667646
0.00691812
0.00654426
0.00596373
0.00499078
0.00385743
0.00181444
0.00299649
0.00416687
0.0047689
0.00485288
0.00479863
0.00454305
0.00393584
0.00309086
0.00222776
0.00218353
0.00342854
0.00451456
0.00484868
0.00484331
0.00450579
0.00379565
0.00302738
0.00203463
0.00138904
0.00233258
0.00405179
0.00588954
0.00689986
0.00686141
0.00583534
0.00423806
0.0030643
0.00205102
0.00138592
0.0033189
0.0060624
0.00883268
0.0102487
0.010189
0.0090994
0.00720309
0.00552398
0.0040483
0.0027033
0.00409006
0.00624063
0.00800999
0.0092219
0.00992927
0.0101023
0.0093005
0.00777437
0.00575726
0.00368963
0.00691706
0.00705641
0.00788557
0.0086873
0.0088259
0.00760641
0.00551474
0.00376966
0.00243394
0.00111869
0.0123065
0.0116592
0.00987858
0.00642931
0.00411031
0.0035788
0.00252361
0.00113276
0.000484557
9.35264e-05
0.0144592
0.0101048
0.00585015
0.00750495
0.0149029
0.0157656
0.00823844
0.0031331
0.000970705
0.000164832
0.0126506
0.0121528
0.0209977
0.042684
0.0664252
0.0701858
0.0510032
0.0272056
0.00982915
0.0028144
0.00945243
0.0169347
0.0355322
0.0621291
0.0870909
0.100701
0.0863316
0.0471517
0.0168156
0.00756135
0.00283452
0.00478399
0.0100012
0.0189935
0.0291352
0.0346247
0.0298046
0.0176906
0.00888286
0.00694684
0.00158525
0.00264611
0.00536074
0.00799378
0.0106632
0.0107981
0.00818762
0.00587564
0.00390347
0.00387902
3.08183e-05
0.000580599
0.0024229
0.00322055
0.00240605
0.00191635
0.0020726
0.00264878
0.00292362
0.00308008
2.09701e-05
0.00011657
0.000703643
0.000832141
0.00151804
0.00400509
0.00239226
0.000439729
0.000748543
0.00358662
0.00376753
0.00977043
0.0226025
0.0283269
0.0254304
0.0232169
0.0214842
0.0222959
0.0266007
0.031773
0.00445374
0.00996162
0.0183756
0.0424308
0.0925107
0.112243
0.087752
0.101077
0.1163
0.100676
0.0216308
0.0291098
0.0580273
0.167726
0.385456
0.562338
0.407101
0.134016
0.0481439
0.0289633
0.0520927
0.0728171
0.142488
0.289465
0.481033
0.615588
0.584311
0.342497
0.123726
0.0227873
0.191778
0.273602
0.411193
0.620786
0.85058
0.934272
0.610769
0.2191
0.0603171
0.013637
0.379404
0.534351
0.658008
0.600994
0.357403
0.103627
0.023554
0.0288374
0.0283515
0.00515193
0.019714
0.012596
0.00591461
0.00159967
3.60907e-05
0.00498129
0.0154866
0.0374581
0.0358084
0.000629704
0.00292937
0.0184695
0.0535355
0.0383005
0.0261379
0.0382305
0.0608165
0.0052624
0.00503726
0.0616533
0.00271601
0.00793287
0.0416501
0.0831681
0.118663
0.103081
0.0430028
0.0230968
0.118412
0.119636
0.0142498
0.00346888
0.032774
0.0573962
0.0431776
0.0815855
0.240927
0.196174
0.0969933
0.212199
0.837115
0.770584
1.06233
1.06509
1.14382
1.24197
0.928477
0.637496
0.552162
0.240088
1.30954e-06
2.00498e-06
2.85997e-06
3.62099e-06
4.12113e-06
4.26257e-06
3.94639e-06
3.14053e-06
2.04054e-06
1.12034e-06
2.84452e-06
6.90125e-06
1.50355e-05
2.52678e-05
3.35471e-05
3.60789e-05
3.08693e-05
2.00317e-05
9.18557e-06
2.92126e-06
8.76808e-06
2.14635e-05
4.94361e-05
9.04781e-05
0.000128032
0.0001412
0.00012229
8.33684e-05
4.54505e-05
2.02696e-05
4.22401e-05
8.41705e-05
0.000141471
0.000201997
0.000244598
0.000246727
0.000205014
0.000139817
7.92754e-05
3.87517e-05
9.80935e-05
0.000178569
0.000261848
0.000318968
0.000341173
0.000327155
0.000269109
0.000181855
0.000104976
5.76438e-05
0.000143225
0.000243912
0.000350258
0.000432918
0.00045807
0.000398848
0.000274054
0.000149148
7.0191e-05
3.85575e-05
0.000192691
0.000314634
0.000439664
0.000523515
0.000524101
0.000427296
0.000285312
0.000160545
7.56292e-05
3.42465e-05
0.000283988
0.000476201
0.00069693
0.000897799
0.00100576
0.000966752
0.000776091
0.000507806
0.000261275
0.000105995
0.000355908
0.000627783
0.00100369
0.00137599
0.00161568
0.00161616
0.00136041
0.000934185
0.000509921
0.000228622
0.000442293
0.000725016
0.00116406
0.00160611
0.00188551
0.00188511
0.00159535
0.00110171
0.000617711
0.000295544
0.000664541
0.00111012
0.00173024
0.00232388
0.00266411
0.00257952
0.00210854
0.00145286
0.000853926
0.000438651
0.000955224
0.00159909
0.00240636
0.00316514
0.00354492
0.0034013
0.00279879
0.0019889
0.00125419
0.000682933
0.0012621
0.00201106
0.0027935
0.00346575
0.00381141
0.00367649
0.00319593
0.00245534
0.00164848
0.000960677
0.00133993
0.00215444
0.00296263
0.00364899
0.00400091
0.00383527
0.00343951
0.00295339
0.00230924
0.00152096
0.00147693
0.00235273
0.00333015
0.00418563
0.0045795
0.00437809
0.00365549
0.00301148
0.00252915
0.00186847
0.00109961
0.00192803
0.00292874
0.00384952
0.00431892
0.00420304
0.00363503
0.00301046
0.00250123
0.00198459
0.00111258
0.00221213
0.00368424
0.00484786
0.00535549
0.00535161
0.00507911
0.00439629
0.00339822
0.00233212
0.000992838
0.00213637
0.00368282
0.00490762
0.0056026
0.00569253
0.0050442
0.00379239
0.00239007
0.0012872
0.000725185
0.00137625
0.00222573
0.00303497
0.0035889
0.00358092
0.00292423
0.00198333
0.00112532
0.000548128
0.000569459
0.000864888
0.0012248
0.00156754
0.00176299
0.00168882
0.00133059
0.000900132
0.000552149
0.000316864
0.000867045
0.00113394
0.00151892
0.00209346
0.00260882
0.00269659
0.00232636
0.00175594
0.00119906
0.000747808
0.00243825
0.00330184
0.00450411
0.00557559
0.00595914
0.00585726
0.0053841
0.00444225
0.00316188
0.00187204
0.00452473
0.0059495
0.00731306
0.00800441
0.00846189
0.00850049
0.00774261
0.00642258
0.00473464
0.00278876
0.00373825
0.00465522
0.00563023
0.00657413
0.00701866
0.00691797
0.00631115
0.00529256
0.00384429
0.00219096
0.00213162
0.00282891
0.00328619
0.00357659
0.00393663
0.00439344
0.00456553
0.00410834
0.00298662
0.00169324
0.00076502
0.00106311
0.00163622
0.00210429
0.00247852
0.00304367
0.00378117
0.00386104
0.00297764
0.0018307
0.00113801
0.00141965
0.00207169
0.00265075
0.00288872
0.00331157
0.00419861
0.00441864
0.0034067
0.00214702
0.00137376
0.00157945
0.0016905
0.00194401
0.00276083
0.00400028
0.00492908
0.00470579
0.00331774
0.00212449
0.00235522
0.00196249
0.00157361
0.00162858
0.00249531
0.00451658
0.00533561
0.00510356
0.00404805
0.00297217
0.00378248
0.00169054
0.00204215
0.00391308
0.00506575
0.00730494
0.00838263
0.00652172
0.00509082
0.00398596
0.00632065
0.0033632
0.00260875
0.00633076
0.010454
0.0126479
0.0165398
0.017853
0.0145208
0.00946232
0.00625448
0.0081406
0.00761192
0.00613159
0.00754902
0.0116331
0.0169905
0.0222584
0.0223649
0.0154476
0.0048029
0.00720352
0.00855995
0.00739419
0.00666873
0.011229
0.0152111
0.0158486
0.01671
0.014839
0.00790378
0.0190847
0.0216019
0.0233124
0.0329862
0.0332335
0.0241668
0.0185114
0.0191375
0.0178936
0.00248742
0.00924555
0.01675
0.0232333
0.0237123
0.016302
0.0131014
0.0148819
0.0177422
0.0129878
0.000555562
0.00101483
0.00174499
0.00188046
0.00161494
0.00115504
0.00161025
0.00354765
0.00529845
0.00390723
0.00100403
0.00124269
0.000929021
0.000860591
0.00139392
0.00269586
0.00444361
0.00569408
0.0048094
0.0023133
0.000980978
0.00152268
0.00129298
0.000536707
7.29416e-05
4.43312e-06
0.000133498
0.0003384
0.000246618
5.45024e-05
0.000654375
0.000162565
0.00181349
0.00579247
0.00878769
0.00568028
0.00123195
6.89047e-05
2.53685e-06
3.29052e-06
0.00153795
0.00155108
0.00120237
0.00214912
0.00585247
0.0103567
0.00730176
0.00373502
0.00251933
0.00233931
0.0404931
0.0930074
0.100693
0.019045
0.00613578
0.00971888
0.0098901
0.00889451
0.0060439
0.00357766
0.0822949
0.0564504
0.135123
0.2979
0.179592
0.0799524
0.0906637
0.10003
0.0768608
0.0388246
0.0292825
0.207532
0.42144
0.398043
0.249172
0.213391
0.259691
0.242258
0.16336
0.0838942
0.0137532
0.0539502
0.132109
0.188832
0.222419
0.324634
0.439948
0.420726
0.321975
0.219093
0.0270674
0.00700609
0.027334
0.0388659
0.0420975
0.112053
0.293586
0.44843
0.470133
0.401426
0.0539976
0.00230076
0.0300473
0.0116145
0.00525767
0.00130799
0.00507453
0.0208177
0.03407
0.0305933
0.00451288
0.0195053
0.0133057
0.00103358
0.0017366
0.0125543
0.0216342
0.00946918
0.00240287
0.000103602
0.686211
0.77044
0.860936
0.795074
0.454185
0.204335
0.0881455
0.0657052
0.0370324
0.0109642
1.6401
1.39648
0.918449
0.627076
0.490519
0.399438
0.330247
0.229453
0.136353
0.0633473
0.383994
0.272522
0.46403
0.932308
1.24109
1.3209
1.34568
1.2831
1.03555
0.929922
1.65057e-06
2.44672e-06
3.2412e-06
3.8477e-06
4.17947e-06
4.17893e-06
3.82831e-06
3.15324e-06
2.26835e-06
1.40862e-06
4.28182e-06
1.04501e-05
1.92186e-05
2.69111e-05
3.10135e-05
3.07313e-05
2.60104e-05
1.79114e-05
9.38385e-06
3.62907e-06
1.31055e-05
3.72523e-05
7.21837e-05
0.000103637
0.000119844
0.000115545
9.27358e-05
6.02008e-05
3.02384e-05
1.15152e-05
4.04958e-05
8.88435e-05
0.000152129
0.000205996
0.000227483
0.000210716
0.000165908
0.000112027
6.68337e-05
3.75638e-05
7.54463e-05
0.000133246
0.000205252
0.000269632
0.000299962
0.00028891
0.000244868
0.000182826
0.000124472
7.98493e-05
0.000138696
0.000207278
0.000303365
0.000412329
0.000485086
0.000491754
0.000432007
0.000331736
0.000225455
0.000134493
0.00022647
0.000323736
0.000401554
0.000521936
0.000629738
0.000675477
0.000649905
0.000546197
0.000383543
0.000215838
0.000259114
0.000487479
0.000746461
0.000989238
0.0011687
0.00122943
0.00116952
0.000974423
0.000664477
0.000348208
0.000148393
0.000374742
0.000742577
0.00120859
0.00163953
0.00186966
0.00177167
0.00136072
0.000833913
0.000419051
0.000157761
0.000360626
0.000672002
0.00113805
0.00162418
0.00185034
0.00177456
0.00150014
0.00100086
0.000522426
0.000394604
0.000772119
0.00125159
0.00170803
0.00213224
0.00234778
0.00227838
0.00190494
0.00132689
0.000731825
0.000840071
0.00160327
0.00257536
0.00332591
0.00367295
0.0037172
0.00340975
0.00272633
0.00185155
0.00104046
0.00117178
0.00205768
0.00329363
0.00439518
0.00500348
0.00490582
0.00430249
0.00330836
0.0021888
0.00128756
0.0015294
0.00237165
0.00362867
0.00482049
0.00569013
0.00592372
0.005316
0.00405996
0.00262814
0.0014716
0.00164667
0.00255912
0.00404656
0.00545173
0.00636645
0.0067363
0.00629851
0.00502978
0.00331565
0.00179612
0.000815859
0.00159995
0.00279706
0.00402428
0.00478652
0.00495838
0.00463307
0.00383707
0.00261169
0.00139719
0.000466601
0.00105702
0.00183171
0.00250797
0.00298416
0.00315809
0.00305152
0.0025952
0.00180233
0.00102518
0.000502777
0.000982038
0.00148336
0.00184095
0.00215672
0.00245604
0.00257046
0.0022907
0.00161674
0.000874872
0.000609931
0.00127404
0.00209872
0.00275458
0.00312147
0.00325931
0.00296446
0.00226788
0.00138546
0.000693303
0.000794731
0.0016831
0.00277895
0.00375213
0.00411244
0.00377455
0.00298215
0.00203117
0.00121393
0.000668956
0.00133949
0.0025134
0.00396119
0.00539492
0.00605975
0.00538056
0.00393148
0.00274546
0.00178537
0.00110555
0.00309331
0.00517038
0.00751497
0.00984016
0.0114196
0.0109406
0.00888796
0.00639096
0.00396062
0.00251992
0.00441215
0.00720083
0.0103173
0.0131952
0.0151252
0.0154463
0.0139917
0.0108844
0.00722625
0.00441467
0.00342904
0.00524495
0.00728924
0.00929347
0.0107412
0.0111303
0.0105499
0.00918109
0.00658965
0.00416275
0.00203758
0.00267749
0.00353028
0.00469445
0.00570374
0.0061397
0.00625898
0.00585829
0.00430308
0.00263608
0.00178117
0.00237541
0.00329329
0.00445104
0.00545616
0.00583997
0.00540948
0.00422408
0.00265128
0.00131415
0.00274589
0.00395198
0.00535746
0.00698472
0.00817956
0.0076092
0.00518684
0.00286521
0.00175644
0.00122249
0.00370083
0.00547466
0.00746797
0.0098615
0.0111569
0.00948424
0.00610102
0.00424047
0.00313014
0.00201106
0.00384844
0.00529727
0.0070229
0.00932988
0.0102898
0.00888219
0.00684723
0.00539137
0.00391995
0.00290881
0.004633
0.00541582
0.00778703
0.0117815
0.0132792
0.0114485
0.00922239
0.00785905
0.00641332
0.00545588
0.00907558
0.0132815
0.016415
0.0143441
0.0103963
0.0082754
0.00795053
0.00814376
0.0078649
0.00680383
0.00884718
0.0107922
0.00728193
0.00197716
0.000118134
0.000270529
0.00180929
0.00395716
0.00472633
0.00435079
0.00360538
0.0022824
0.000625183
0.000116924
0.00113051
0.00184576
0.00187569
0.00227433
0.00331539
0.00343439
0.00192865
0.00174645
0.000545086
0.00275365
0.00557999
0.00329606
0.00145324
0.00231654
0.00431875
0.00293071
0.00244125
0.00580452
0.00983572
0.0113743
0.0054487
0.000491909
0.000116632
0.000949358
0.00154622
0.000974672
0.0043433
0.00767681
0.00679226
0.00288768
0.000108468
0.00043598
0.000277595
2.87569e-06
5.7043e-05
0.000371275
0.00394137
0.00357178
0.00250328
0.000637075
0.00118697
0.00458584
0.00319465
0.0015848
0.00169278
0.00121669
0.00208189
0.00203433
0.000605482
0.000747895
0.00111056
0.00316884
0.00935448
0.00742923
0.00325045
0.00119944
0.000421441
0.000313685
0.0025821
0.021352
0.0322553
0.00767053
0.00201003
0.00358452
0.00338164
0.00200293
3.80127e-05
0.000444725
0.0122334
0.049185
0.062271
0.0243496
0.00383138
0.00136557
0.00152143
0.00141596
0.00945372
0.00195025
0.0109299
0.0553198
0.0688933
0.0369327
0.0177678
0.0153027
0.017323
0.0219878
0.00587172
0.00180895
0.00315523
0.0324523
0.0625749
0.0675759
0.0701867
0.0719398
0.0702876
0.0613747
0.00162975
0.00324546
0.00782188
0.00568403
0.0118479
0.0270788
0.00858383
0.0031698
0.00526245
0.0012935
0.00817312
0.0252159
0.00106923
0.0375914
0.127245
0.211889
0.0580321
0.0159506
0.0652686
0.0230214
0.029229
0.0925259
0.0135188
0.142653
0.301918
0.179505
0.173147
0.258345
0.0661393
0.0158591
0.330304
0.343092
0.491112
0.0838231
0.0758319
0.00610856
0.120253
0.42735
0.397275
0.00477734
0.210156
0.407763
0.582792
0.218085
0.0135832
0.0784786
0.149483
0.348979
0.548975
0.258143
0.942728
1.12733
1.23134
0.720235
0.558658
1.75569
1.36101
0.994573
0.851738
0.742507
0.680591
0.94488
1.10992
0.965703
0.724498
1.92254
2.85419
2.26706
2.00018
1.85368
0.287714
0.416914
0.48865
0.716216
0.794797
1.68037
4.02574
3.49362
2.43711
0.964107
)
;
    }
    inlet
    {
        type            calculated;
        value           uniform 0;
    }
    outlet
    {
        type            calculated;
        value           uniform 0;
    }
}


// ************************************************************************* //
