/*--------------------------------*- C++ -*----------------------------------*\
| =========                 |                                                 |
| \\      /  F ield         | OpenFOAM: The Open Source CFD Toolbox           |
|  \\    /   O peration     | Version:  2406                                  |
|   \\  /    A nd           | Website:  www.openfoam.com                      |
|    \\/     M anipulation  |                                                 |
\*---------------------------------------------------------------------------*/
FoamFile
{
    version     2.0;
    format      ascii;
    arch        "LSB;label=32;scalar=64";
    class       volVectorField;
    location    "0.2";
    object      momentError;
}
// * * * * * * * * * * * * * * * * * * * * * * * * * * * * * * * * * * * * * //

dimensions      [0 1 -2 0 0 0 0];

internalField   nonuniform List<vector> 
25000
(
(-37.9186 -49.6025 -77.4205)
(-26.5561 -59.3126 -82.8332)
(-11.2821 -62.7301 -87.257)
(3.23871 -62.2637 -86.286)
(15.6239 -59.9848 -82.3231)
(24.8231 -57.3687 -77.0355)
(30.6541 -54.5906 -71.5913)
(33.7924 -51.8077 -66.9358)
(37.1841 -48.295 -62.2643)
(50.004 -46.8874 -60.9799)
(-41.9291 -45.3606 -76.3916)
(-29.789 -53.8289 -92.4376)
(-12.4926 -54.4848 -101.172)
(4.17665 -52.4273 -101.937)
(18.007 -48.963 -97.7012)
(27.9501 -46.5109 -91.408)
(34.6639 -45.224 -83.8646)
(38.263 -43.8166 -76.1749)
(40.9915 -41.8846 -68.249)
(50.1637 -39.9687 -61.7319)
(-43.3873 -38.6757 -79.5984)
(-30.3432 -46.4131 -100.583)
(-12.9759 -47.2282 -115.604)
(4.18947 -44.4596 -118.446)
(18.7776 -40.4202 -111.636)
(28.4573 -37.3434 -103.109)
(34.9456 -36.4758 -93.5363)
(39.1373 -36.1303 -82.6891)
(42.0006 -35.1253 -72.1837)
(50.1839 -33.5652 -63.1315)
(-44.5407 -30.7076 -83.65)
(-30.3082 -38.4499 -111.012)
(-12.3589 -37.9299 -133.72)
(3.77989 -34.5898 -137.357)
(18.4254 -31.0409 -124.91)
(28.6235 -28.5582 -111.398)
(34.3342 -27.9681 -100.562)
(38.3483 -28.5694 -87.4853)
(41.4357 -28.5549 -74.3381)
(49.3798 -27.3591 -63.8411)
(-45.9755 -21.1725 -88.7589)
(-29.468 -27.4109 -123.226)
(-12.1768 -27.916 -153.485)
(2.49298 -24.3189 -156.457)
(17.2138 -20.2013 -137.057)
(28.396 -18.4833 -116.694)
(33.923 -18.9226 -104.495)
(37.1638 -20.2198 -90.604)
(40.2291 -21.0895 -75.8547)
(48.2669 -20.3907 -64.4998)
(-47.1971 -9.58868 -92.3846)
(-28.8 -15.4972 -131.61)
(-11.7821 -15.7756 -163.847)
(2.11939 -12.7085 -164.878)
(15.9971 -9.49165 -142.786)
(27.8325 -7.4449 -117.909)
(33.4129 -9.02 -105.22)
(36.053 -11.0099 -91.3679)
(38.8143 -12.508 -76.2819)
(47.0564 -12.2876 -64.9673)
(-47.8122 3.05312 -92.3429)
(-28.9354 -1.09686 -129.349)
(-11.1474 -2.03915 -159.253)
(2.90724 -0.203816 -159.024)
(16.4603 2.40823 -137.73)
(27.5494 3.76797 -115.254)
(32.7052 1.49406 -103.17)
(34.9539 -1.08766 -89.3656)
(37.4266 -2.96088 -75.3524)
(45.9192 -3.02548 -65.0101)
(-48.9399 15.3827 -90.0674)
(-30.1805 15.4471 -117.913)
(-10.5604 13.9087 -141.072)
(4.66823 14.3289 -140.14)
(18.0418 15.9821 -123.412)
(27.0514 14.7272 -109.891)
(31.558 11.9502 -98.8246)
(33.9275 9.52576 -85.4724)
(36.1255 7.62264 -73.2893)
(45.0232 7.61051 -64.7185)
(-49.8345 27.0661 -85.3908)
(-30.6222 29.0736 -101.317)
(-10.278 29.9118 -112.484)
(5.88096 29.1369 -112.175)
(17.8053 27.6025 -106.088)
(25.4096 25.5905 -98.8615)
(30.1802 23.9925 -89.5452)
(32.6356 22.6296 -78.4946)
(34.8178 21.2313 -69.3162)
(44.2249 21.7534 -63.2001)
(-50.363 43.7492 -79.1439)
(-29.5307 44.4568 -88.4993)
(-11.4315 44.3522 -91.9448)
(2.96827 44.1027 -90.7696)
(13.787 43.4569 -87.2183)
(21.8083 42.9088 -81.4507)
(26.9013 42.0229 -73.8803)
(29.4344 40.7932 -67.1432)
(32.2861 39.9356 -61.8992)
(43.501 42.9843 -61.8748)
(-83.9479 -113.89 -340.951)
(-65.8979 -111.78 -369.002)
(-56.1965 -111.794 -382.802)
(-38.989 -110.406 -370.337)
(-13.8763 -102.954 -336.976)
(12.0178 -90.4497 -298.974)
(31.9421 -78.6803 -269.851)
(43.5148 -71.3781 -253.983)
(50.3333 -65.6158 -241.597)
(68.0577 -62.0508 -231.137)
(-85.1299 -93.9666 -367.253)
(-69.2329 -91.4227 -409.362)
(-57.2251 -88.3546 -428.002)
(-44.3311 -91.2432 -424.965)
(-21.6354 -91.1586 -389.601)
(7.81351 -82.9312 -340.789)
(34.3131 -71.6993 -302.519)
(51.5455 -63.0042 -280.913)
(59.6323 -57.2207 -265.493)
(72.9325 -53.817 -246.59)
(-82.0334 -83.2284 -382.872)
(-64.6136 -71.2536 -446.88)
(-55.9075 -61.3871 -468.132)
(-48.2849 -65.0815 -469.942)
(-28.2908 -71.2745 -433.925)
(3.17246 -70.1704 -373.982)
(34.4964 -62.7174 -325.884)
(55.7731 -55.2948 -299.998)
(64.8419 -50.5313 -281.048)
(76.2425 -47.7891 -259.787)
(-78.9416 -65.047 -412.278)
(-58.6539 -45.1811 -473.982)
(-50.6749 -31.1265 -485.35)
(-44.9455 -33.4911 -489.867)
(-31.6863 -43.4825 -459.826)
(-1.6449 -48.4105 -401.407)
(33.3262 -46.5993 -344.445)
(57.5348 -42.7402 -313.237)
(67.0905 -40.8068 -290.838)
(76.9828 -39.8581 -267.148)
(-74.4219 -44.7847 -442.854)
(-52.9263 -23.0084 -495.668)
(-42.3074 -2.98881 -500.715)
(-34.0362 -4.95268 -502.832)
(-25.5858 -14.8031 -468.624)
(-4.81039 -24.1166 -415.363)
(30.4857 -26.0408 -360.366)
(56.4153 -26.5147 -322.624)
(66.9481 -27.677 -297.636)
(75.7863 -28.9027 -272.576)
(-70.992 -28.9606 -465.477)
(-47.5298 -4.99283 -520.394)
(-33.6442 14.6443 -519.729)
(-25.9026 14.6388 -508.057)
(-18.5763 6.4688 -469.078)
(-3.83066 -3.58201 -419.165)
(28.7513 -6.6374 -368.562)
(54.6065 -9.01633 -328.234)
(65.283 -12.2551 -301.302)
(73.4635 -15.185 -276.065)
(-67.7896 -14.5953 -461.888)
(-43.3283 4.68969 -522.97)
(-29.0806 21.0217 -516.331)
(-21.6436 22.7839 -495.263)
(-13.9913 17.0129 -455.726)
(1.26722 9.6593 -413.177)
(29.9702 9.074 -364.463)
(53.7817 7.75882 -326.873)
(63.0461 3.98844 -300.541)
(70.5458 -0.12504 -275.789)
(-65.8608 0.732639 -425.6)
(-42.6382 9.41623 -499.722)
(-27.9979 20.8636 -505.546)
(-18.5557 23.2298 -482.326)
(-7.74893 20.4032 -440.13)
(11.1278 20.0339 -399.771)
(35.4345 24.1704 -349.151)
(55.2581 24.6897 -320.857)
(61.3752 20.8122 -298.428)
(67.5062 15.2477 -271.762)
(-64.9303 23.3956 -363.694)
(-44.8647 20.0032 -458.937)
(-28.1154 24.6247 -475.18)
(-13.9057 27.4216 -454.786)
(2.39214 29.6696 -416.978)
(22.2732 36.1604 -364.898)
(42.6801 41.9328 -329.547)
(55.7788 43.3797 -310.119)
(58.3454 38.9183 -291.849)
(63.7771 32.0556 -264.085)
(-66.3236 50.888 -302.354)
(-42.4068 46.4241 -341.164)
(-23.5677 49.2014 -368.731)
(-5.9593 53.5695 -355.371)
(12.0246 59.3556 -327.174)
(29.831 65.1877 -304.215)
(43.0157 68.5572 -288.975)
(49.8816 68.8694 -280.735)
(52.6057 65.087 -267.623)
(60.0205 58.3589 -255.045)
(-122.809 -96.348 -473.005)
(-131.55 -97.5484 -528.352)
(-144.193 -121.37 -576.556)
(-142.945 -143.483 -570.081)
(-121.642 -148.778 -517.017)
(-81.1322 -140.501 -443.633)
(-33.2038 -126.295 -387.88)
(8.90445 -116.156 -377.717)
(38.842 -105.782 -369.056)
(66.9806 -93.8916 -349.791)
(-114.757 -52.1433 -496.873)
(-122.532 -36.1618 -546.57)
(-128.287 -54.1529 -621.141)
(-127.037 -81.2727 -658.122)
(-114.041 -98.7531 -630.921)
(-85.2936 -110.628 -561.986)
(-41.3279 -116.228 -473.726)
(4.65557 -112.779 -422.287)
(44.1785 -102.717 -412.266)
(75.4784 -92.1977 -399.339)
(-102.292 -23.7922 -501.792)
(-97.8013 13.5272 -526.174)
(-88.2269 8.30711 -620.683)
(-84.8864 -14.2686 -682.827)
(-86.8684 -33.0736 -675.265)
(-75.6028 -52.8265 -621.629)
(-41.6136 -77.2839 -538.755)
(5.6732 -94.4467 -470.895)
(50.2689 -93.2711 -438.901)
(84.3501 -82.8429 -427.249)
(-89.2746 5.97354 -526.022)
(-70.6379 60.133 -534.127)
(-49.682 61.1836 -646.868)
(-45.515 41.3164 -701.32)
(-55.0483 25.7341 -687.288)
(-61.2327 10.0537 -618.604)
(-42.6827 -23.1163 -562.32)
(4.80667 -56.4029 -505.168)
(54.2276 -67.4499 -458.998)
(89.4602 -62.7554 -440.808)
(-81.7059 45.5193 -573.728)
(-50.6411 103.075 -605.49)
(-28.9358 95.5094 -692.28)
(-32.7733 72.8403 -708.608)
(-43.9076 58.2004 -689.359)
(-50.0884 51.4114 -639.932)
(-42.7741 22.2031 -570.212)
(2.08384 -13.0854 -524.393)
(55.3965 -33.0726 -475.604)
(91.4398 -36.2601 -451.035)
(-76.6115 78.5291 -625.283)
(-38.752 119.101 -662.841)
(-27.6588 101.99 -723.728)
(-33.8614 83.0311 -725.257)
(-42.5046 70.7103 -684.279)
(-46.8478 67.5328 -633.268)
(-42.1275 49.4391 -560.303)
(1.89892 19.3152 -533.951)
(55.4941 -0.207759 -488.205)
(90.9436 -8.39545 -459.935)
(-69.6779 79.3642 -659.06)
(-35.0184 103.848 -688.374)
(-30.0962 91.9333 -726.506)
(-35.7903 81.2137 -724.617)
(-42.5158 71.6515 -665.603)
(-46.1727 71.0144 -596.055)
(-36.2549 57.0325 -554.056)
(8.24232 37.6538 -539.917)
(57.1827 24.4268 -495.64)
(89.2483 15.6096 -464.635)
(-66.7225 58.7268 -656.241)
(-38.4002 78.1002 -692.614)
(-33.8233 72.1875 -700.158)
(-38.3212 67.4229 -681.812)
(-42.5764 62.7491 -638)
(-39.7663 61.5116 -572.08)
(-19.0736 48.3806 -552.03)
(23.92 44.2936 -538.881)
(62.2781 39.2107 -489.432)
(86.6682 32.5509 -453.487)
(-72.3474 37.6219 -629.675)
(-46.9168 51.9525 -674.22)
(-39.184 49.6138 -653.92)
(-38.8934 48.2302 -629.264)
(-35.6716 47.3027 -599.604)
(-20.2503 41.4376 -567.348)
(7.75809 40.9022 -543.648)
(46.8328 49.0615 -509.158)
(69.6888 52.5342 -462.992)
(84.9246 45.0202 -423.413)
(-81.5747 40.6075 -541.315)
(-57.1197 39.8189 -599.648)
(-43.5243 37.3895 -577.561)
(-33.1072 36.4147 -560.947)
(-17.5762 37.986 -543.549)
(4.88751 46.5431 -510.461)
(35.6516 59.2437 -470.887)
(60.3684 68.968 -431.894)
(72.7017 74.791 -423.129)
(87.6137 66.2244 -383.768)
(-76.888 -27.1999 -373.318)
(-105.341 -52.3293 -455.293)
(-105.048 -82.697 -583.46)
(-108.82 -111.791 -708.96)
(-104.973 -128.729 -754.464)
(-81.5865 -138.776 -754.067)
(-43.6909 -145.326 -698.152)
(3.30013 -146.945 -629.813)
(41.5336 -145.49 -583.013)
(76.2934 -131.717 -500.918)
(-75.7868 12.7586 -443.835)
(-82.1463 9.46147 -550.996)
(-37.1737 -3.66207 -577.079)
(-26.5976 -5.86235 -691.828)
(-35.4383 -13.8257 -792.426)
(-38.9489 -26.3626 -863.2)
(-29.8047 -47.0339 -864.691)
(-3.72435 -72.367 -749.355)
(39.0459 -90.0335 -611.581)
(78.094 -97.3745 -577.191)
(-66.564 65.1088 -480.39)
(-56.1636 78.1084 -671.266)
(8.86092 47.8793 -804.184)
(28.2751 42.7378 -791.265)
(11.2515 46.8019 -805.546)
(-6.37158 50.0406 -844.036)
(-17.6665 46.5135 -873.845)
(-6.5818 19.1562 -792.813)
(32.3784 -30.7507 -646.566)
(73.6243 -56.4262 -572.258)
(-53.8368 120.981 -533.299)
(-32.3487 129.135 -891.423)
(5.10489 80.6674 -1072.68)
(4.76679 73.752 -997.722)
(-3.09743 77.8931 -895.821)
(-7.50031 84.9513 -890.867)
(-19.0834 107.766 -839.635)
(-18.611 87.3285 -737.117)
(20.373 29.9373 -651.689)
(66.7496 -19.9035 -578.122)
(-33.9992 159.809 -618.391)
(-15.8002 136.93 -1022.58)
(-16.1431 91.8569 -1102.68)
(-29.3549 93.3722 -1036.65)
(-31.8729 90.4131 -975.36)
(-27.3243 90.2186 -952.856)
(-33.5013 127.117 -870.323)
(-37.2152 124.24 -655.993)
(3.28733 69.7308 -641.646)
(59.2276 9.77009 -592.728)
(-15.1787 161.508 -736.098)
(-7.49866 120.97 -983.743)
(-29.8902 95.5745 -1032.66)
(-40.8397 98.9532 -1027.3)
(-41.3138 91.874 -975.975)
(-42.9684 89.3594 -926.928)
(-55.556 127.357 -822.794)
(-55.9275 127.779 -600.456)
(-12.8834 84.7355 -625.823)
(51.3705 29.2915 -616.906)
(-6.69635 141.922 -758.083)
(-7.59683 106.7 -916.483)
(-31.9672 92.8224 -991.849)
(-42.9587 99.5991 -1021.73)
(-47.3871 89.5286 -920.534)
(-57.3259 90.4005 -842.137)
(-76.866 119.266 -726.075)
(-68.9578 115.949 -565.355)
(-19.2736 77.6386 -627.781)
(48.4028 37.6824 -644.166)
(-8.86443 116.419 -744.223)
(-10.9602 89.3622 -862.035)
(-31.5656 81.5077 -917.427)
(-45.2393 86.5252 -901.6)
(-56.0921 85.5588 -825.284)
(-73.5916 89.4273 -746.517)
(-83.5316 98.5423 -628.824)
(-62.5237 86.9269 -578.131)
(-7.58061 57.3486 -642.186)
(53.7689 36.1793 -655.338)
(-21.5851 80.2901 -754.092)
(-15.901 68.4235 -826.297)
(-29.7125 62.742 -843.339)
(-46.7413 68.1001 -796.94)
(-64.3586 73.8579 -732.134)
(-73.7303 72.9356 -662.339)
(-60.801 62.1663 -575.404)
(-22.5712 47.9578 -646.521)
(28.1817 34.6115 -634.198)
(69.836 33.3623 -626.526)
(-45.3928 59.2768 -723.891)
(-21.3685 55.8257 -765.791)
(-22.8795 49.0726 -748.907)
(-35.3314 50.0241 -697.502)
(-45.1701 49.1428 -656.357)
(-35.0475 39.867 -612.495)
(-5.57369 33.254 -621.56)
(37.5687 31.3987 -586.695)
(64.7284 36.4486 -534.055)
(84.8378 41.0521 -517.177)
(-30.046 -38.9398 -549.944)
(6.17112 -60.0565 -624.009)
(65.492 -59.2388 -604.648)
(85.4081 -54.1108 -614.928)
(67.7555 -57.7951 -785.08)
(30.0995 -72.0989 -993.189)
(5.76904 -74.5552 -1105.18)
(3.15524 -73.7996 -1077.62)
(23.0132 -72.2898 -891.898)
(56.9809 -63.3058 -680.721)
(-46.4211 -11.6643 -812.353)
(12.8672 -37.898 -1042.33)
(96.4963 -33.752 -1083.5)
(132.935 -13.541 -944.663)
(114.387 -1.04662 -788.176)
(72.8786 7.79676 -854.802)
(45.0489 13.1378 -1056.37)
(27.9582 24.9701 -1146.41)
(28.3103 32.9772 -964.428)
(45.1549 12.2718 -697.945)
(-58.1308 44.5286 -1032.72)
(-23.3947 -6.3575 -1397.28)
(8.61429 -19.7483 -1460.42)
(15.2664 13.3703 -1276.8)
(22.4354 33.3417 -1048.12)
(40.2097 38.9057 -959.008)
(47.0183 50.6824 -1045.6)
(36.0651 88.6835 -1115.2)
(30.5425 116.004 -966.026)
(43.217 84.6609 -670.104)
(-57.3694 90.5518 -1126.72)
(-73.0958 -5.53124 -1423.56)
(-88.2134 -17.0153 -1394.3)
(-91.6831 22.044 -1271.68)
(-63.8546 31.3274 -1153.42)
(-15.3283 27.062 -1163.22)
(24.2823 42.8446 -1244.43)
(27.0988 127.546 -1205.86)
(22.7071 184.21 -1020.55)
(33.5689 139.11 -625.41)
(-47.7837 112.906 -1086.08)
(-103.791 -18.3251 -1238.6)
(-130.463 -12.667 -1247.99)
(-118.069 20.1764 -1266.68)
(-77.4612 13.4512 -1253.66)
(-31.0312 0.448241 -1270.25)
(4.12736 20.6027 -1306.49)
(4.1576 140.373 -1275.16)
(2.28462 232.484 -1037.27)
(14.2738 176.116 -611.58)
(-36.0382 114.206 -954.838)
(-98.9005 -15.498 -1074.81)
(-126.543 1.60683 -1189.58)
(-108.03 28.6974 -1295.19)
(-69.2936 18.4246 -1300.76)
(-32.1086 -2.91297 -1256.82)
(-9.5761 22.1025 -1234.85)
(-28.8577 159.351 -1185.56)
(-29.6583 257.529 -956.434)
(-12.2849 185.907 -584.994)
(-18.4823 106.821 -821.181)
(-72.323 5.91097 -991.434)
(-105.52 26.2339 -1160.24)
(-100.879 47.8877 -1238.06)
(-70.2451 37.6614 -1195.78)
(-34.8677 17.3082 -1128.2)
(-32.0796 58.694 -1101.7)
(-69.4994 186.094 -1030.27)
(-73.6395 253.384 -794.844)
(-39.3451 169.831 -550.071)
(-8.86652 88.3565 -801.167)
(-47.4756 37.1859 -977.846)
(-80.39 50.4163 -1072.81)
(-88.2133 69.2993 -1085.29)
(-68.558 65.5925 -1039.97)
(-52.5216 60.3409 -987.402)
(-81.096 114.389 -898.544)
(-121.581 201.707 -805.206)
(-116.913 203.081 -620.179)
(-58.8547 135.537 -555.385)
(-1.47165 78.3898 -838.734)
(-21.0646 58.1079 -931.773)
(-50.7164 62.2543 -960.049)
(-68.8318 75.8912 -941.625)
(-73.108 80.4674 -890.289)
(-91.2421 95.7717 -794.995)
(-130.639 132.633 -674.606)
(-141.066 142.021 -563.045)
(-113.29 112.832 -529.807)
(-58.0987 89.4069 -574.325)
(6.4259 83.863 -813.006)
(7.9511 66.0813 -859.491)
(-11.0128 60.6701 -855.343)
(-38.9371 65.1988 -806.658)
(-64.5775 73.7427 -723.089)
(-90.9359 82.8763 -598.177)
(-93.3818 80.1375 -556.746)
(-79.5214 70.1159 -581.37)
(-52.7988 59.2676 -579.794)
(-18.2268 57.0028 -550.777)
(-21.9143 -42.9688 -952.27)
(34.2647 -60.3299 -1114.22)
(114.954 -53.2923 -1076.59)
(162.473 -39.2264 -952.116)
(147.262 -21.2666 -813.622)
(104.341 -6.00117 -755.461)
(74.5802 12.6911 -794.428)
(68.0795 25.943 -1002.75)
(71.3196 28.6306 -1120.55)
(72.9231 24.2229 -1008.39)
(-46.2251 -43.6689 -1140.91)
(-19.1918 -46.6745 -1419.16)
(4.14647 -15.7861 -1426.96)
(19.2234 15.7867 -1246.34)
(31.5052 31.9606 -1031.47)
(51.3623 34.3452 -874.771)
(71.6249 27.5047 -791.638)
(88.7713 26.0286 -996.232)
(99.3556 47.6678 -1213.21)
(88.9292 68.1549 -1130.26)
(-47.9206 -51.6286 -1047.64)
(-53.4762 -44.1464 -1217.83)
(-85.1902 9.16755 -1288.85)
(-110.568 36.7252 -1213.06)
(-91.8175 31.2683 -1059.19)
(-38.0044 9.71419 -981.626)
(24.9737 -16.5086 -1082.58)
(81.71 -20.3908 -1271.23)
(95.3423 38.4091 -1352.83)
(90.4595 98.7565 -1302.69)
(-49.7098 -46.8248 -908.565)
(-74.5217 -45.2996 -941.23)
(-113.645 7.99642 -1083.15)
(-128.407 12.5467 -1171.91)
(-104.684 -19.4325 -1182.02)
(-59.2 -63.0838 -1268.98)
(-15.9169 -110.129 -1371.95)
(30.2195 -113.341 -1350.36)
(62.6733 12.158 -1306.56)
(78.6853 125.654 -1344.72)
(-46.5878 -32.5264 -848.743)
(-92.5646 -48.7686 -830.2)
(-125.873 -5.09095 -1105.11)
(-108.343 -21.4123 -1341.02)
(-84.4041 -69.0822 -1436.8)
(-64.7515 -125.295 -1514.18)
(-41.7485 -178.959 -1513.04)
(0.189122 -169.243 -1345.41)
(34.9111 8.26536 -1294.07)
(66.4683 174.701 -1288.7)
(-30.2696 -9.58128 -826.521)
(-96.7854 -34.0185 -916.109)
(-123.623 -16.112 -1218.7)
(-114.175 -46.575 -1393.42)
(-101.469 -92.2947 -1503.44)
(-78.6193 -147.38 -1549.1)
(-39.1511 -197.371 -1481.68)
(8.19591 -153.916 -1248.12)
(34.8273 53.0371 -1278.31)
(51.1037 223.465 -1192.23)
(-10.266 24.8993 -829.799)
(-91.4979 -15.4288 -971.606)
(-137.871 -19.9125 -1172.08)
(-147.206 -42.1564 -1310.59)
(-125.921 -76.7803 -1416.13)
(-74.5063 -121.446 -1446.26)
(-10.6883 -145.629 -1280.5)
(19.3394 -56.921 -1158.34)
(30.2012 150.972 -1233.13)
(25.0304 260.147 -1075.03)
(6.37588 63.454 -838.226)
(-83.7862 13.5302 -979.913)
(-144.172 -2.77034 -1044.23)
(-157.172 0.972574 -1134.5)
(-118.915 -10.1818 -1216.05)
(-55.7496 -32.4882 -1158.47)
(-20.3183 -10.8764 -1047.27)
(-15.7083 101.237 -1101.03)
(-26.3782 249.746 -1129.78)
(-26.0558 263.138 -920.49)
(23.578 91.1029 -846.43)
(-44.815 48.4712 -936)
(-100.003 29.5727 -900.971)
(-111.965 48.3676 -937.323)
(-91.2783 62.1186 -957.563)
(-83.9279 79.1378 -936.883)
(-104.506 125.276 -940.974)
(-125.41 194.747 -966.383)
(-122.981 242.727 -929.304)
(-81.8289 205.088 -742.753)
(40.1911 102.198 -847.19)
(15.3824 68.9566 -950.244)
(-15.585 52.4827 -843.456)
(-38.8652 56.9389 -760.579)
(-66.5331 74.0916 -769.538)
(-110.929 98.7874 -771.279)
(-153.791 120.895 -753.919)
(-161.801 125.37 -727.238)
(-138.004 125.726 -676.527)
(-82.0393 110.709 -575.314)
(6.93031 1.54436 -736.657)
(-30.2558 44.8221 -886.79)
(-41.3517 75.6374 -951.487)
(-19.8593 93.7625 -844.833)
(0.167182 106.182 -816.163)
(15.7857 121.011 -865.152)
(41.0731 123.439 -941.298)
(73.4984 102.993 -1046.91)
(87.3138 85.7747 -1163.96)
(86.9848 80.0684 -1157.52)
(14.9784 -16.5011 -672.631)
(-37.3339 61.9753 -874.856)
(-103.668 111.715 -1013.21)
(-128.15 127.926 -979.284)
(-110.494 129.314 -962.454)
(-66.893 114.737 -991.572)
(-9.62979 71.9907 -1037.57)
(47.0959 13.2947 -1232.86)
(57.21 -10.7488 -1329.49)
(56.463 42.9684 -1405.87)
(7.49545 -43.7942 -580.735)
(-25.7928 43.4389 -649.099)
(-72.2747 99.0714 -959.018)
(-111.28 96.1803 -1084.49)
(-110.697 74.213 -1047)
(-77.6871 22.5739 -963.461)
(-53.1622 -57.5617 -1136.33)
(-69.5806 -158.444 -1448.68)
(-16.004 -155.051 -1255.68)
(-0.477879 -50.4818 -1346.33)
(-9.10042 -45.5331 -644.421)
(-40.2564 36.679 -710.307)
(-60.5423 70.9472 -1026.71)
(-66.0147 37.8164 -1138.5)
(-60.9322 -11.486 -1107.5)
(-67.3559 -68.8443 -1226.12)
(-105.113 -162.85 -1478.48)
(-144.881 -277.406 -1555.75)
(-79.8225 -269.454 -1104.13)
(-33.9183 -124.202 -1081.38)
(-26.9233 -31.3693 -754.557)
(-57.9906 29.7639 -948.165)
(-51.9062 16.2026 -1138.72)
(-45.4544 -26.5055 -1174.17)
(-54.0724 -71.8605 -1262.43)
(-82.0829 -131.554 -1497.15)
(-119.333 -222.358 -1737.81)
(-153.62 -346.304 -1728.72)
(-81.555 -318.412 -980.991)
(-32.858 -144.957 -866.236)
(-36.57 -19.8186 -842.156)
(-73.4506 1.32136 -1072.82)
(-61.9598 -39.771 -1168.5)
(-63.2785 -79.2288 -1283.54)
(-76.9083 -118.607 -1544.1)
(-90.6089 -169.142 -1847.86)
(-109.194 -256.191 -2049.05)
(-105.426 -375.742 -1810.78)
(-36.6863 -320.338 -1013.87)
(-5.19567 -136.981 -833.102)
(-46.0471 -8.6874 -937.041)
(-106.171 -27.4065 -1086.5)
(-111.265 -76.909 -1136.12)
(-112.427 -110.241 -1420.05)
(-107.422 -137.017 -1788.88)
(-94.5177 -183.772 -2107.59)
(-67.8271 -269.212 -2080.7)
(6.90052 -323.827 -1468.31)
(26.8604 -259.001 -949.658)
(21.6503 -93.078 -792.962)
(-53.7892 3.14342 -987.749)
(-137.322 -41.427 -1070.45)
(-184.977 -88.0301 -1049.54)
(-180.605 -101.211 -1248.33)
(-156.117 -114.787 -1619.91)
(-88.8643 -147.444 -1738.42)
(8.11342 -177.958 -1545.48)
(62.347 -185.863 -1199.32)
(58.1097 -145.79 -889.529)
(18.3085 -36.5659 -709.131)
(-45.3197 19.425 -1010.09)
(-115.013 -30.4836 -971.774)
(-180.826 -56.4726 -920.945)
(-206.611 -42.8893 -978.583)
(-192.682 -15.8522 -1151.22)
(-127.142 -3.52321 -1189.46)
(-52.1548 -4.32714 -1085.84)
(-3.49497 -11.9282 -989.393)
(7.98061 -12.3878 -889.069)
(-16.6311 11.307 -624.796)
(-0.115775 50.1145 -996.341)
(-38.384 2.13973 -966.27)
(-83.075 -18.8186 -798.476)
(-110.49 -6.00027 -781.482)
(-131.184 28.6727 -841.724)
(-132.738 57.9492 -849.596)
(-120.549 68.2237 -821.931)
(-98.1693 62.7576 -797.012)
(-70.723 50.9677 -733.541)
(-42.6268 31.7138 -557.868)
(23.5211 -1.60052 -562.272)
(-28.2796 39.3122 -671.229)
(-68.0743 54.8561 -856.621)
(-88.1304 66.3564 -973.277)
(-77.036 82.3603 -981.585)
(-54.7652 96.4518 -927.652)
(-53.5663 62.5492 -943.11)
(-86.8954 19.2248 -1045.38)
(-123.816 -11.4924 -1072.87)
(-109.004 18.5317 -954.969)
(71.3199 19.4768 -638.941)
(21.9663 68.9883 -776.704)
(-20.8125 58.9316 -1028.29)
(-32.6438 42.089 -1215.52)
(-27.2076 45.0325 -1155.56)
(-24.3172 45.3474 -978.747)
(-63.8466 -5.20147 -965.756)
(-152.317 -111.97 -1160.92)
(-230.758 -185.717 -1081.39)
(-204.05 -114.587 -845.679)
(85.8025 53.2286 -787.904)
(59.842 90.2837 -878.508)
(23.5551 66.4031 -1004.98)
(17.8511 34.1593 -1094.96)
(21.5241 13.8894 -1048.84)
(1.06178 -1.14646 -903.831)
(-48.2799 -52.7349 -1003.31)
(-118.331 -162.293 -1306.8)
(-267.488 -327.361 -1321.57)
(-263.076 -261.026 -876.666)
(81.1709 66.4697 -1013.22)
(54.2731 80.5676 -997.406)
(14.4984 43.7377 -936.259)
(10.4192 14.6033 -887.694)
(16.1466 -15.7512 -870.215)
(18.5082 -44.2203 -880.317)
(29.5751 -65.2074 -1091.15)
(-7.79579 -157.515 -1520.48)
(-196.745 -396.121 -1679.98)
(-229.826 -376.627 -1028.43)
(68.5057 39.3259 -1159.44)
(45.1618 19.3904 -1017.22)
(5.95792 -15.8044 -891.35)
(-12.2667 -44.0182 -920.888)
(-0.330877 -58.3722 -957.523)
(38.9908 -56.9936 -1111.24)
(88.6807 -75.0719 -1437.61)
(66.6673 -180.406 -1856.23)
(-120.619 -418.672 -1958.51)
(-144.096 -406.801 -1148.38)
(50.8492 -12.0328 -1151.24)
(19.9596 -43.4172 -1017.11)
(-24.9604 -55.3586 -1011.77)
(-24.7651 -40.7437 -1078.64)
(9.42868 -22.0046 -1179.95)
(75.9338 -28.2749 -1547.11)
(118.524 -76.3255 -1935.14)
(64.3008 -207.92 -2166.34)
(-69.1387 -389.477 -1944.41)
(-62.517 -360.482 -1120.5)
(21.0793 -62.5101 -1036.74)
(-32.0185 -82.6689 -1055.05)
(-62.3179 -61.9953 -1226.26)
(-16.4119 -10.4199 -1449.16)
(35.5176 17.5894 -1663.07)
(90.7525 -5.46188 -2029.67)
(76.5276 -91.3633 -2236.99)
(-4.87919 -211.966 -2166.21)
(-18.3052 -311.399 -1754.22)
(-2.70282 -287.883 -1042.78)
(-36.1265 -114.558 -933.28)
(-141.674 -132.444 -1060)
(-203.72 -101.686 -1448.23)
(-167.039 -59.9073 -1793.37)
(-61.9623 -26.667 -2106.27)
(-4.43497 -47.631 -2291.95)
(12.3884 -99.9784 -2195.53)
(17.6039 -161.436 -2009.64)
(46.1993 -227.493 -1554.65)
(41.0168 -207.557 -1000.47)
(-72.9407 -143.343 -842.388)
(-223.598 -197.533 -934.753)
(-375.477 -168.173 -1282.88)
(-410.77 -91.9571 -1588.99)
(-317.813 -37.3802 -1819.47)
(-174.569 -23.0463 -1907.8)
(-63.82 -41.2918 -1805.98)
(25.9145 -82.4169 -1637.06)
(72.9429 -132.96 -1348.89)
(52.7926 -123.589 -916.301)
(-25.0777 -114.751 -729.462)
(-133.621 -178.275 -782.323)
(-273.641 -174.923 -934.812)
(-381.562 -96.4591 -1000.66)
(-388.846 -17.0028 -1026.52)
(-294.755 25.6242 -1082.26)
(-160.674 28.339 -1153.99)
(-43.7151 3.00266 -1199.21)
(19.8923 -29.1059 -1089.38)
(31.0506 -31.4172 -827.255)
(-30.0899 -3.96622 -536.927)
(-28.2521 -23.558 -594.105)
(13.7349 -52.7695 -627.96)
(50.3694 -69.0953 -745.082)
(70.0224 -80.1155 -945.353)
(70.3875 -68.8709 -1070.77)
(35.1044 -37.978 -1080.18)
(-77.7319 -56.2944 -1121.26)
(-222.725 -121.618 -1023.44)
(-232.257 -118.073 -703.719)
(-20.8034 18.9984 -667.219)
(-17.8674 -34.6073 -811.84)
(47.6529 -105.066 -866.17)
(113.667 -142.402 -1024.5)
(148.712 -147.536 -1166.01)
(153.525 -101.247 -1176.54)
(132.013 -12.8624 -957.527)
(41.0729 -12.4073 -1076.18)
(-154.237 -166.18 -1191.79)
(-264.703 -238.967 -896.211)
(-0.516878 38.9639 -782.26)
(-9.48206 -18.5286 -905.528)
(37.0458 -86.4554 -865.536)
(100.134 -132.291 -971.346)
(151.141 -140.109 -1118.42)
(177.234 -82.2126 -1025.48)
(186.992 26.5511 -698.346)
(146.406 58.311 -861.33)
(-13.3915 -98.0218 -1272.65)
(-174.986 -288.96 -1024.1)
(16.4889 26.747 -943.844)
(5.68629 -32.6491 -924.577)
(26.7599 -79.092 -861.207)
(68.3018 -98.04 -843.809)
(119.864 -90.6225 -839.428)
(165.201 -32.8538 -650.46)
(194.67 46.2421 -508.367)
(191.01 83.6885 -642.65)
(95.2984 -12.5336 -1208.79)
(-46.3658 -229.703 -1171.62)
(23.2337 -6.54405 -1026.14)
(8.91677 -59.3725 -921.223)
(14.9805 -69.6652 -768.894)
(44.3681 -41.6262 -510.107)
(102.93 -14.439 -426.402)
(178.346 4.10347 -895.485)
(206.476 59.4631 -1051.74)
(216.86 86.4136 -994.308)
(163.392 14.3234 -1166.18)
(75.2666 -121.639 -1329.02)
(29.2725 -52.98 -1058.57)
(9.82138 -61.4009 -932.231)
(22.6836 -30.3639 -701.183)
(60.0707 16.8991 -278.131)
(154.623 41.6476 -634.527)
(222.303 62.6142 -1217.17)
(236.602 88.518 -1400.37)
(242.234 74.5535 -1318.55)
(189.372 -1.35422 -1204.47)
(114.669 -67.6866 -1361.31)
(33.0631 -111.752 -1075.76)
(26.67 -63.049 -957.584)
(83.6069 5.97804 -841.762)
(140.336 63.1174 -578.591)
(235.244 104.19 -833.042)
(296.986 113.136 -1286.07)
(263.701 85.2968 -1282.22)
(173.358 25.6377 -992.294)
(89.463 -23.2446 -1043.11)
(81.5085 -52.9589 -1120.26)
(-25.6035 -171.726 -1074.77)
(-50.1324 -79.5086 -1037.82)
(40.8127 2.95745 -1046.04)
(176.042 56.3076 -1068.17)
(260.08 107.147 -1055.77)
(301.642 104.431 -1249.46)
(167.679 29.967 -907.013)
(35.4418 -36.4461 -1010.95)
(-27.4891 -58.7698 -1099.99)
(22.7549 -43.1224 -913.488)
(-142.945 -239.519 -949.212)
(-272.04 -148.207 -1051.05)
(-241.114 -55.293 -1112.19)
(-71.8978 -16.7544 -1209.57)
(135.085 17.5839 -1440.49)
(186.868 22.7847 -1421.85)
(99.0244 -22.0697 -1196.87)
(2.33574 -68.8086 -1142.72)
(-4.91945 -75.0725 -1103.67)
(26.8112 -41.1433 -838.646)
(-165.528 -228.833 -694.447)
(-313.045 -212.284 -780.322)
(-394.784 -128.665 -788.8)
(-345.981 -64.2845 -913.181)
(-160.676 -28.1749 -1139.67)
(15.458 -11.5828 -1338.7)
(44.9895 -22.2508 -1226.27)
(27.7388 -39.1026 -1022.76)
(41.3623 -41.1402 -876.634)
(47.0692 -21.1363 -691.249)
(-5.12706 40.0855 -748.917)
(-1.92196 7.00135 -866.218)
(35.6752 -27.4679 -1049.81)
(84.9396 -38.5396 -1180.69)
(114.772 -30.0656 -1222.48)
(105.15 -4.72588 -1093.03)
(72.1167 51.6416 -761.676)
(8.65483 112.111 -554.39)
(-78.2466 101.537 -445.561)
(-126.546 -5.25909 -326.372)
(-6.82015 63.3124 -722.594)
(5.77762 -1.12194 -937.993)
(37.2738 -77.2312 -1224.05)
(73.0779 -110.303 -1462.78)
(109.165 -112.467 -1593.11)
(119.585 -69.5721 -1457.33)
(122.356 36.9266 -953.273)
(96.2463 152.08 -291.339)
(6.80126 140.948 -241.796)
(-78.4581 11.1059 -282.663)
(14.4722 83.0421 -748.46)
(25.781 9.78755 -917.415)
(41.8694 -87.3187 -1143.91)
(66.9789 -147.171 -1507.06)
(87.7535 -147.508 -1837.03)
(105.15 -97.8881 -1834.04)
(122.034 15.2439 -1397.54)
(131.601 172.686 -615.526)
(70.719 220.506 -63.305)
(-19.3498 112.421 -270.173)
(38.7577 81.8449 -719.262)
(50.5417 8.53299 -812.122)
(51.1431 -82.5667 -967.018)
(78.2049 -148.742 -1430.58)
(108.251 -162.41 -2066.81)
(114.563 -95.0122 -2249.31)
(120.97 21.8628 -1763.23)
(129.327 173.171 -1122.65)
(96.4865 271.971 -457.789)
(11.2344 229.351 -336.604)
(45.4397 79.7563 -690.706)
(53.2032 26.9572 -717.431)
(65.9239 -57.5233 -889.471)
(114.411 -112.023 -1509.02)
(172.154 -113.465 -2325.94)
(132.54 -10.9139 -2365.13)
(97.3133 83.2251 -1868.23)
(111.48 182.653 -1423.55)
(132.13 269.617 -977.518)
(59.2751 293.281 -800.065)
(59.4544 86.5415 -706.852)
(73.3589 74.3379 -650.216)
(113.812 24.5566 -823.133)
(210.205 -10.6837 -1594.68)
(272.18 1.60951 -2254.6)
(194.307 52.8916 -2107.04)
(117.225 93.8492 -1729.05)
(104.179 162.728 -1557.22)
(143.566 240.811 -1465.05)
(103.605 280.684 -1294.12)
(106.419 69.4727 -808.028)
(158.59 100.847 -614.239)
(218.173 93.5206 -677.236)
(338.221 84.7193 -1264.99)
(405.178 69.0901 -1926.86)
(309.118 58.3061 -1821.93)
(193.788 57.0172 -1337.26)
(128.086 74.9048 -1153.91)
(100.343 108.991 -1100.38)
(70.4128 186.633 -1325.2)
(143.779 12.4969 -822.643)
(217.11 70.8577 -556.153)
(313.87 100.877 -436.871)
(446.464 104.646 -780.62)
(543.748 81.4791 -1456.53)
(457.587 45.0078 -1585.45)
(301.301 17.0775 -1169.3)
(45.33 -26.0097 -598.585)
(-106.726 7.12465 -361.476)
(-42.4966 73.27 -548.638)
(85.7365 -56.9962 -534.014)
(120.124 24.4891 -369.139)
(255.365 50.1494 -284.373)
(404.552 62.4685 -338.677)
(553.219 37.8822 -939.108)
(537.906 -6.87981 -1399.19)
(312.897 -62.5093 -1074.29)
(-10.4453 -84.9064 -445.054)
(-174.468 -23.3953 -325.603)
(-134.129 51.2138 -407.701)
(-40.4303 -96.3492 -368.643)
(-46.6538 -32.0517 -254.457)
(76.5472 11.3094 -210.564)
(235.431 -13.9093 -312.574)
(408.405 -12.5541 -613.187)
(505.752 -70.0532 -1230.98)
(354.449 -96.4246 -1234.93)
(68.9651 -99.1324 -579.15)
(-65.4753 -73.6043 -312.51)
(-82.4585 -33.6514 -397.018)
(-46.7759 95.4828 -934.799)
(-93.5235 77.5302 -1106.28)
(-95.2611 55.4223 -1138.34)
(-65.8602 45.1974 -950.952)
(-31.5788 40.8524 -747.049)
(-19.6787 41.161 -639.863)
(-7.58488 66.0814 -670.286)
(11.2603 121.375 -649.869)
(13.5733 161.514 -522.42)
(-14.7688 120.35 -376.549)
(-56.4244 44.6311 -848.021)
(-78.6296 -13.1895 -1124.87)
(-84.3303 -44.9344 -1282.52)
(-80.444 -43.4758 -1163.32)
(-56.5012 -11.7601 -999.634)
(-41.704 17.7309 -839.908)
(-27.8287 38.9879 -756.939)
(15.1379 104.983 -692.59)
(47.5226 208.131 -503.318)
(21.491 201.471 -309.239)
(-46.3927 -1.55544 -771.302)
(-60.0696 -68.1271 -998.634)
(-61.3397 -101.533 -1297.76)
(-71.8254 -87.3495 -1367.45)
(-73.7704 -26.1772 -1349.22)
(-67.3831 20.1483 -1126.09)
(-51.7338 66.2321 -938.699)
(-26.5283 143.928 -1045.19)
(14.6927 271.669 -944.568)
(12.3522 332.137 -582.656)
(-42.041 -33.3105 -744.922)
(-60.301 -87.4072 -880.03)
(-41.8088 -89.5347 -1275.74)
(-38.4478 -64.8821 -1624.04)
(-70.454 34.354 -1957.54)
(-83.419 68.9028 -1677.66)
(-60.3944 92.1559 -1192.9)
(-69.2996 190.823 -1238.86)
(-64.5353 352.816 -1293.57)
(-51.2598 466.717 -1026.89)
(-40.8639 -31.3354 -752.031)
(-47.7299 -45.2452 -845.612)
(-3.81309 -22.4939 -1304.76)
(24.7433 9.25954 -1853.36)
(-38.612 58.4532 -2130.92)
(-80.6642 48.2627 -1832.71)
(-62.7201 90.2364 -1418.02)
(-57.941 213.178 -1371.34)
(-68.5799 401.418 -1393.81)
(-92.3294 575.484 -1343.86)