/*--------------------------------*- C++ -*----------------------------------*\
| =========                 |                                                 |
| \\      /  F ield         | OpenFOAM: The Open Source CFD Toolbox           |
|  \\    /   O peration     | Version:  2406                                  |
|   \\  /    A nd           | Website:  www.openfoam.com                      |
|    \\/     M anipulation  |                                                 |
\*---------------------------------------------------------------------------*/
FoamFile
{
    version     2.0;
    format      ascii;
    arch        "LSB;label=32;scalar=64";
    class       volScalarField;
    location    "0.2";
    object      p;
}
// * * * * * * * * * * * * * * * * * * * * * * * * * * * * * * * * * * * * * //

dimensions      [0 2 -2 0 0 0 0];

internalField   nonuniform List<scalar> 
25000
(
2200.96
2200.63
2200.38
2200.17
2200.03
2199.95
2199.95
2200
2200.1
2200.29
2200.64
2200.35
2200.11
2199.9
2199.73
2199.62
2199.59
2199.64
2199.76
2199.97
2200.44
2200.18
2199.96
2199.76
2199.57
2199.41
2199.34
2199.37
2199.49
2199.71
2200.31
2200.1
2199.91
2199.72
2199.51
2199.31
2199.19
2199.18
2199.29
2199.51
2200.25
2200.07
2199.92
2199.73
2199.5
2199.27
2199.11
2199.07
2199.15
2199.36
2200.24
2200.08
2199.94
2199.75
2199.51
2199.27
2199.09
2199.02
2199.08
2199.27
2200.26
2200.08
2199.93
2199.75
2199.51
2199.28
2199.1
2199.03
2199.07
2199.25
2200.3
2200.07
2199.9
2199.71
2199.5
2199.3
2199.15
2199.1
2199.14
2199.3
2200.36
2200.07
2199.86
2199.68
2199.5
2199.35
2199.26
2199.24
2199.28
2199.44
2200.51
2200.14
2199.9
2199.72
2199.59
2199.51
2199.48
2199.49
2199.55
2199.72
2189.53
2189.1
2188.78
2188.52
2188.37
2188.37
2188.53
2188.77
2189.02
2189.31
2189.08
2188.65
2188.32
2188.04
2187.83
2187.79
2187.95
2188.27
2188.64
2189.03
2188.75
2188.29
2187.95
2187.66
2187.42
2187.32
2187.47
2187.84
2188.3
2188.77
2188.58
2188.12
2187.79
2187.5
2187.21
2187.05
2187.15
2187.53
2188.04
2188.56
2188.6
2188.19
2187.88
2187.58
2187.25
2187.02
2187.04
2187.38
2187.88
2188.41
2188.74
2188.42
2188.15
2187.84
2187.47
2187.17
2187.12
2187.39
2187.84
2188.33
2188.93
2188.67
2188.44
2188.13
2187.74
2187.42
2187.33
2187.53
2187.9
2188.34
2189.08
2188.85
2188.61
2188.31
2187.97
2187.69
2187.61
2187.77
2188.06
2188.42
2189.19
2188.91
2188.65
2188.38
2188.12
2187.94
2187.92
2188.06
2188.29
2188.57
2189.26
2188.92
2188.64
2188.42
2188.26
2188.2
2188.25
2188.4
2188.59
2188.81
2165.21
2164.58
2164.03
2163.48
2163.15
2163.18
2163.53
2164.04
2164.6
2165.21
2164.46
2163.68
2163.07
2162.58
2162.29
2162.32
2162.7
2163.29
2163.98
2164.75
2163.86
2163.06
2162.51
2162.08
2161.79
2161.75
2162.05
2162.65
2163.42
2164.3
2163.59
2162.93
2162.52
2162.18
2161.86
2161.69
2161.79
2162.25
2163.05
2164
2163.78
2163.33
2163.06
2162.77
2162.41
2162.07
2161.94
2162.2
2162.93
2163.89
2164.44
2164.16
2163.96
2163.66
2163.22
2162.74
2162.42
2162.49
2163.11
2164
2165.34
2165.16
2164.98
2164.64
2164.11
2163.52
2163.08
2163.03
2163.52
2164.29
2166.19
2166.05
2165.85
2165.47
2164.89
2164.26
2163.79
2163.7
2164.07
2164.68
2166.79
2166.61
2166.37
2165.98
2165.42
2164.85
2164.44
2164.38
2164.66
2165.1
2167.12
2166.84
2166.56
2166.19
2165.75
2165.33
2165.07
2165.06
2165.27
2165.6
2137.57
2136.84
2135.9
2135.12
2134.76
2134.77
2135
2135.26
2135.6
2136.22
2136.57
2135.76
2134.93
2134.34
2134.04
2134.06
2134.3
2134.6
2135
2135.64
2135.83
2135.19
2134.58
2134.17
2133.92
2133.86
2133.99
2134.2
2134.55
2135.18
2135.29
2135.02
2134.7
2134.44
2134.21
2134.06
2134.05
2134.13
2134.37
2134.94
2135.13
2135.21
2135.13
2134.98
2134.74
2134.47
2134.3
2134.27
2134.41
2134.92
2135.47
2135.74
2135.8
2135.68
2135.39
2134.99
2134.65
2134.5
2134.6
2135.07
2136.24
2136.57
2136.68
2136.53
2136.12
2135.56
2135.07
2134.81
2134.9
2135.38
2137.25
2137.58
2137.71
2137.5
2136.95
2136.23
2135.6
2135.27
2135.36
2135.83
2138.24
2138.52
2138.65
2138.41
2137.79
2136.99
2136.31
2135.95
2136.05
2136.45
2139.08
2139.24
2139.31
2139.09
2138.53
2137.81
2137.22
2136.94
2137.04
2137.3
2103.8
2102.96
2102.03
2101.32
2100.86
2100.61
2100.57
2100.69
2100.93
2101.38
2103.05
2102.38
2101.63
2101.07
2100.71
2100.51
2100.52
2100.68
2100.9
2101.21
2102.6
2102.05
2101.48
2101.02
2100.71
2100.54
2100.58
2100.73
2100.91
2101.16
2102.21
2101.74
2101.26
2100.9
2100.65
2100.51
2100.55
2100.68
2100.87
2101.18
2101.89
2101.52
2101.07
2100.73
2100.49
2100.33
2100.37
2100.57
2100.87
2101.29
2101.65
2101.42
2100.98
2100.54
2100.19
2099.98
2100.08
2100.45
2100.98
2101.52
2101.58
2101.45
2101.01
2100.44
2099.93
2099.68
2099.85
2100.42
2101.16
2101.79
2101.75
2101.71
2101.35
2100.74
2100.1
2099.77
2099.94
2100.53
2101.3
2101.98
2102.19
2102.25
2102.03
2101.49
2100.83
2100.37
2100.34
2100.72
2101.37
2102.07
2102.86
2102.93
2102.8
2102.37
2101.76
2101.22
2101
2101.18
2101.71
2102.36
2056.22
2055.91
2055.74
2055.7
2055.62
2055.43
2055.32
2055.43
2055.68
2055.88
2055.67
2055.49
2055.3
2055.29
2055.38
2055.35
2055.35
2055.56
2055.8
2055.85
2055.38
2055.32
2055.18
2055.21
2055.35
2055.38
2055.41
2055.54
2055.64
2055.64
2055.43
2055.46
2055.31
2055.26
2055.3
2055.24
2055.11
2055.04
2055.02
2055.14
2055.82
2055.84
2055.53
2055.21
2054.96
2054.6
2054.25
2054.08
2054.18
2054.61
2056.33
2056.18
2055.59
2054.82
2054.09
2053.43
2053.02
2053.07
2053.6
2054.52
2056.67
2056.31
2055.39
2054.15
2053.04
2052.27
2052.07
2052.55
2053.65
2055.03
2056.77
2056.27
2055.19
2053.81
2052.63
2052
2052.12
2053.02
2054.47
2055.96
2056.87
2056.31
2055.37
2054.28
2053.4
2053.01
2053.29
2054.24
2055.56
2056.86
2057
2056.48
2055.83
2055.17
2054.7
2054.51
2054.67
2055.26
2056.16
2057.25
2000.57
2000.63
2000.88
2001.46
2002.13
2002.47
2002.48
2002.28
2001.81
2001.12
2000.38
2000.61
2000.92
2001.47
2002.15
2002.61
2002.71
2002.39
2001.61
2000.58
2000.57
2000.89
2001.26
2001.77
2002.35
2002.71
2002.65
2002.03
2000.9
1999.72
2001.05
2001.47
2001.82
2002.18
2002.48
2002.47
2002.03
2001.07
1999.82
1998.81
2001.68
2002.1
2002.26
2002.24
2002.04
2001.55
2000.75
1999.72
1998.72
1998.1
2002.15
2002.38
2002.16
2001.63
2000.91
2000.1
1999.27
1998.51
1997.93
1997.8
2002.31
2002.25
2001.6
2000.64
1999.65
1998.83
1998.24
1997.87
1997.72
1997.99
2002.29
2001.92
2001.03
1999.98
1999.05
1998.45
1998.2
1998.13
1998.23
1998.68
2002.26
2001.61
2000.84
2000.15
1999.63
1999.34
1999.28
1999.31
1999.4
1999.78
2002.25
2001.49
2001.02
2000.85
2000.88
2000.92
2000.92
2000.83
2000.71
2000.94
1942.74
1942.7
1942.76
1942.98
1943.41
1943.9
1944.35
1944.61
1944.34
1943.58
1942.6
1942.62
1942.76
1943.09
1943.63
1944.21
1944.63
1944.82
1944.39
1943.47
1942.73
1942.86
1942.95
1943.16
1943.56
1943.93
1944.14
1944.22
1943.94
1943.35
1943.03
1943.22
1943.18
1943.02
1942.93
1942.9
1942.96
1943.13
1943.28
1943.35
1943.39
1943.46
1943.09
1942.41
1941.8
1941.51
1941.61
1942.05
1942.66
1943.29
1943.62
1943.39
1942.62
1941.51
1940.62
1940.36
1940.68
1941.33
1942.1
1942.92
1943.68
1943.21
1942.15
1940.84
1939.99
1939.92
1940.38
1940.99
1941.61
1942.33
1943.64
1943.14
1942.15
1940.95
1940.22
1940.22
1940.59
1940.96
1941.32
1941.8
1943.48
1943.15
1942.75
1942.07
1941.43
1941.13
1941.1
1941.16
1941.31
1941.65
1943.34
1943.26
1943.64
1943.75
1943.23
1942.46
1941.83
1941.52
1941.6
1942.09
1875.15
1874.82
1874.56
1874.33
1874.26
1874.32
1874.47
1874.74
1874.83
1875.01
1875.26
1874.96
1874.77
1874.71
1874.75
1874.84
1874.9
1874.97
1875.1
1875.59
1875.46
1875.14
1874.87
1874.84
1874.89
1874.84
1874.76
1874.65
1874.67
1875.44
1875.69
1875.28
1874.81
1874.52
1874.41
1874.34
1874.33
1874.29
1874.25
1874.76
1875.93
1875.3
1874.43
1873.8
1873.63
1873.83
1874.18
1874.37
1874.32
1874.46
1876.15
1875.11
1873.8
1872.96
1873
1873.64
1874.41
1874.83
1874.77
1874.66
1876.29
1874.9
1873.16
1872.2
1872.52
1873.64
1874.73
1875.15
1874.96
1874.75
1876.24
1874.75
1872.71
1871.57
1872.04
1873.48
1874.65
1874.8
1874.35
1874.2
1875.93
1874.82
1872.86
1871.42
1871.59
1872.86
1873.85
1873.79
1873.47
1873.61
1875.66
1875.21
1873.82
1872.07
1871.38
1871.95
1872.63
1872.71
1872.83
1873.47
1817.95
1817.92
1817.81
1817.56
1817.3
1817.23
1817.17
1816.76
1815.81
1814.82
1818.36
1818.47
1818.58
1818.52
1818.26
1818.01
1817.67
1816.96
1815.83
1814.62
1818.78
1818.9
1819.09
1819.26
1819.14
1818.72
1818.06
1817.04
1815.63
1814.2
1819.24
1819.3
1819.41
1819.61
1819.62
1819.2
1818.46
1817.39
1815.84
1814.2
1819.63
1819.61
1819.55
1819.65
1819.72
1819.46
1818.99
1818.17
1816.75
1815.03
1819.85
1819.64
1819.38
1819.33
1819.44
1819.6
1819.62
1819.2
1818.11
1816.61
1819.78
1819.28
1818.7
1818.52
1818.9
1819.62
1820.11
1819.94
1819.11
1818.06
1819.23
1818.43
1817.49
1817.23
1817.99
1819.3
1820.15
1819.91
1819
1818.4
1818.16
1817.18
1816.06
1815.73
1816.58
1818.28
1819.42
1819.18
1818.47
1818.25
1816.9
1815.85
1814.78
1814.4
1815.02
1816.65
1818.09
1818.26
1818.04
1818.19
1763.64
1763.43
1763.12
1762.88
1762.66
1762.64
1762.84
1762.81
1762.05
1760.72
1764.05
1763.98
1763.75
1763.52
1763.2
1763.03
1763.12
1762.99
1762.15
1760.58
1764.44
1764.46
1764.43
1764.45
1764.21
1763.83
1763.5
1763.1
1762.18
1760.41
1764.8
1764.99
1765.22
1765.49
1765.33
1764.73
1764.04
1763.42
1762.4
1760.65
1765.08
1765.48
1765.88
1766.15
1765.89
1765.16
1764.52
1764.07
1763.2
1761.63
1765.26
1765.82
1766.26
1766.33
1765.85
1765.22
1764.97
1764.92
1764.53
1763.48
1765.34
1765.88
1766.24
1766.13
1765.63
1765.3
1765.62
1765.97
1765.9
1765.56
1765.05
1765.52
1765.78
1765.71
1765.53
1765.86
1767
1767.66
1767.18
1766.86
1764.27
1764.5
1764.7
1764.91
1765.42
1766.73
1768.72
1769.66
1768.8
1768.13
1762.97
1762.86
1762.97
1763.51
1764.76
1767.13
1769.8
1771.07
1770.61
1770.1
1714.28
1714.07
1713.5
1713.11
1712.9
1712.84
1712.88
1712.79
1712.32
1711.4
1714.69
1714.46
1713.83
1713.45
1713.16
1712.85
1712.64
1712.39
1711.84
1710.83
1714.6
1714.4
1714.03
1713.99
1713.76
1713.16
1712.49
1711.81
1711.16
1710.32
1714.04
1714.19
1714.33
1714.49
1714.04
1713.09
1712.11
1711.22
1710.57
1710.07
1713.31
1713.82
1714.25
1714.12
1713.08
1711.81
1710.87
1710.26
1710.12
1710.21
1712.7
1713.3
1713.58
1712.84
1711.17
1709.92
1709.54
1709.54
1709.98
1710.78
1712.27
1712.67
1712.51
1711.07
1709.19
1708.85
1709.66
1710.18
1710.59
1711.74
1711.82
1711.99
1711.47
1709.71
1708.43
1709.71
1712.01
1712.76
1712.3
1712.88
1711.12
1711.12
1710.68
1709.51
1709.48
1712.15
1715.51
1716.42
1714.9
1714.52
1710.04
1709.94
1709.97
1709.98
1711.21
1714.59
1718.24
1719.58
1718.13
1717.1
1665.73
1664.88
1663.46
1662.97
1663.17
1663.2
1662.86
1662.48
1662.1
1661.43
1666.53
1665.38
1663.87
1663.86
1664.34
1664.21
1663.35
1662.04
1660.92
1659.99
1666.11
1665.22
1664.14
1664.38
1664.71
1664.18
1662.82
1660.77
1659.04
1658.25
1663.97
1664
1663.75
1663.96
1663.65
1662.56
1660.8
1658.62
1656.99
1656.77
1661.41
1662.11
1662.49
1662.07
1660.72
1659.25
1657.69
1656
1654.9
1655.27
1659.38
1660.11
1660.17
1658.76
1656.9
1655.84
1655.2
1654.19
1653.44
1654.2
1657.86
1658.03
1657.14
1655.02
1653.59
1653.81
1654.68
1654.32
1653.35
1654.25
1656.54
1655.87
1654.06
1651.82
1651.64
1653.78
1656.24
1656.25
1654.79
1655.32
1655.27
1653.92
1651.8
1650.21
1651.33
1654.75
1658.25
1658.71
1657.04
1657.07
1654.07
1652.57
1650.89
1650.28
1651.95
1655.08
1658.38
1659.84
1659.44
1659.7
1612.32
1610.6
1608.72
1608.68
1609.82
1610.21
1609.46
1608.03
1606.76
1606.03
1613.34
1612.01
1610.61
1611.2
1612.28
1612.02
1610.41
1608.1
1606.08
1605.05
1613.46
1613.76
1613.05
1613.3
1613.36
1612.19
1609.65
1606.77
1604.89
1604.61
1611.96
1613.96
1614.29
1614.03
1613.09
1610.94
1607.71
1604.74
1603.6
1604.5
1610.61
1613.21
1614.07
1613.41
1611.68
1609.11
1605.82
1603.13
1602.69
1604.42
1609.65
1611.94
1612.48
1611.31
1609.46
1607.48
1605.09
1603.01
1602.87
1605.02
1608.42
1609.73
1609.39
1607.94
1606.85
1606.38
1605.64
1604.61
1604.52
1606.41
1606.53
1606.42
1605.13
1603.95
1604.4
1605.94
1607.01
1607.09
1606.92
1608.19
1604.57
1603.25
1601.53
1600.99
1602.62
1605.48
1607.83
1608.97
1608.93
1609.63
1603.11
1601.4
1600.19
1600.22
1601.86
1604.49
1607.16
1609.26
1610.09
1611.17
1547.49
1545.28
1543.82
1543.92
1544.83
1544.28
1542.72
1541.18
1540.37
1540.13
1549.31
1547.66
1546.27
1546.26
1546.55
1545.43
1543.43
1541.74
1540.95
1540.99
1550.86
1550.9
1550.34
1549.77
1548.47
1546.2
1543.7
1542.33
1542.55
1543.37
1552.28
1553.68
1554.04
1552.75
1550.13
1546.94
1544.11
1543.13
1544.61
1546.2
1553.81
1555.62
1555.9
1554.19
1551.08
1547.84
1545.08
1544.48
1546.75
1548.64
1554.43
1556.13
1556.09
1554.17
1551.5
1548.85
1546.62
1546.39
1548.77
1550.7
1553.6
1554.73
1554.37
1552.87
1551.23
1549.77
1548.64
1548.79
1550.71
1552.38
1551.28
1551.31
1550.78
1550.36
1550.31
1550.38
1550.5
1551.14
1552.42
1553.55
1548.59
1547.62
1547.33
1548.19
1549.47
1550.6
1551.61
1552.52
1553.25
1553.91
1546.79
1545.57
1545.95
1547.91
1549.73
1551.09
1552.45
1553.35
1553.54
1554.36
1491.25
1490.6
1490.77
1490.65
1489.76
1488.1
1485.76
1482.52
1478.91
1476
1492.27
1490.79
1489.46
1488.7
1487.91
1486.39
1484.18
1481.15
1477.98
1475.23
1493.21
1491.46
1489.39
1487.97
1486.86
1485.37
1483.09
1480.03
1476.9
1474.05
1493.65
1492.33
1490.83
1489.22
1487.62
1485.5
1482.49
1478.93
1475.58
1472.62
1492.8
1492.12
1491.7
1490.53
1488.53
1485.21
1481.09
1477.2
1474.04
1471.2
1491.16
1491.08
1491.37
1490.48
1487.75
1483.48
1478.99
1475.35
1472.61
1470.08
1489.53
1489.61
1489.86
1488.78
1485.6
1481.42
1477.37
1474.02
1471.5
1469.51
1487.43
1487.16
1486.81
1485.42
1482.54
1479.07
1475.58
1472.53
1470.46
1469.21
1485.01
1484.32
1483.34
1481.81
1479.35
1476.24
1472.95
1470.19
1468.8
1468.43
1482.97
1482.54
1481.53
1479.88
1477.33
1474.13
1470.86
1468.23
1467.25
1467.85
1439.16
1438.63
1439.01
1438.78
1436.8
1433.66
1429.49
1424.11
1418.4
1413.14
1439.74
1438.84
1438.16
1437.45
1435.38
1431.77
1427.16
1421.56
1415.34
1409.11
1439.81
1438.5
1436.71
1434.9
1432.51
1429.08
1424.51
1418.9
1412.34
1405.37
1437.97
1436.56
1434.51
1432.32
1430.06
1426.92
1422.51
1416.92
1410.15
1403.15
1434.33
1432.41
1430.82
1429.74
1428.21
1424.88
1420.14
1414.74
1408.57
1402.57
1430.52
1427.61
1426.44
1426.41
1424.96
1421.21
1416.55
1411.88
1406.96
1402.61
1427.11
1423.59
1422.35
1422.37
1420.56
1416.91
1412.89
1408.76
1404.86
1402.13
1423.78
1420.23
1418.47
1417.78
1415.59
1412.46
1409.14
1405.59
1402.82
1401.34
1419.97
1416.27
1413.43
1411.56
1409.31
1406.97
1404.63
1402.17
1400.59
1400.26
1416.14
1411.69
1407.48
1404.63
1402.62
1401.27
1400.16
1398.95
1398.4
1399.54
1379.49
1379.09
1378.48
1377.85
1377.44
1377.61
1378.73
1379.67
1378.26
1375.32
1379.34
1380.31
1380.67
1380.58
1380.15
1379.59
1379.37
1378.68
1376.07
1372.34
1379.53
1381.18
1382.27
1382.5
1382.02
1380.99
1379.52
1377.22
1373.57
1369.36
1379.45
1381.25
1382.68
1383.08
1382.73
1381.71
1379.67
1376.57
1372.19
1367.38
1379.64
1381.04
1382.11
1382.91
1383.43
1382.68
1379.96
1376.01
1371.02
1366.13
1381.09
1381.24
1381.25
1382.25
1383.31
1381.79
1378.15
1373.98
1369.41
1365.67
1382.78
1381.14
1379.91
1380.82
1381.19
1378.73
1375.12
1371.68
1368.31
1366.23
1382.24
1379.39
1377.69
1378.51
1378.07
1375.48
1372.88
1370.46
1368.3
1367.73
1379.42
1376
1374
1374.26
1373.74
1372.02
1370.67
1369.41
1368.69
1369.23
1377.19
1373.17
1370.12
1368.9
1368.35
1367.95
1368.01
1367.98
1368.21
1369.72
1341.36
1341.97
1342.48
1342.71
1342.7
1342.55
1343.25
1345.73
1350.08
1354.15
1342.02
1343.52
1344.82
1345.74
1346.25
1346.44
1347.32
1349.72
1353.35
1356.27
1343.39
1345.42
1347.82
1349.85
1351.34
1352.48
1353.72
1355.61
1358.1
1360.08
1345.16
1347.6
1350.87
1353.77
1356.19
1358.24
1359.71
1360.69
1361.61
1362.84
1347.18
1350.17
1353.93
1357.18
1360.12
1362.34
1363.43
1363.61
1363.25
1363.7
1349.62
1353.13
1357.27
1360.67
1363.53
1365.05
1365.46
1365.28
1364.45
1364.66
1352.99
1356.43
1360.64
1363.78
1365.6
1366.28
1366.63
1366.68
1366.24
1366.84
1357.21
1360.09
1363.63
1366.15
1366.93
1367.23
1367.97
1368.75
1369.06
1369.8
1362.28
1363.96
1366.06
1367.71
1367.8
1368.09
1369.52
1371.12
1372.12
1373.63
1366.59
1367.05
1367.82
1368.9
1369.22
1369.79
1371.5
1373.12
1374.05
1375.75
1353.66
1355.66
1357.8
1359.23
1359.75
1360.14
1360.94
1362.4
1365
1367.37
1355.44
1357.31
1359.31
1360.78
1361.84
1362.88
1364.38
1366.56
1369.13
1371.04
1357.77
1359.77
1362.04
1363.97
1365.77
1367.65
1369.7
1372.14
1374.4
1375.93
1360.21
1362.66
1365.3
1367.75
1370.38
1372.95
1375.42
1377.61
1378.72
1379.18
1362.52
1365.57
1368.8
1371.93
1375.24
1378.09
1380.75
1382.69
1382.78
1381.84
1364.46
1368.41
1372.68
1376.28
1379.63
1382.55
1385.19
1386.8
1386.12
1384.45
1366.18
1371.13
1376.35
1380.15
1383.4
1386.42
1389.02
1390.33
1389.4
1387.76
1368.08
1373.41
1378.91
1382.74
1385.95
1389.17
1391.81
1393.27
1392.82
1391.43
1370.83
1375.57
1380.67
1384.2
1387.09
1390.18
1393.02
1394.98
1395.29
1394.56
1374.39
1378.64
1383.61
1386.81
1388.97
1391.12
1393.72
1395.79
1396.23
1395.51
1439.17
1438.55
1437.78
1435.2
1431.51
1429.21
1429.63
1432.38
1436.83
1441.4
1439.16
1438.18
1437.34
1435.56
1432.8
1430.83
1431.24
1434.05
1438.11
1441.83
1438.85
1438.2
1437.99
1437.15
1435.63
1434.72
1435.56
1438.08
1441.31
1444.95
1438.41
1438.39
1438.84
1439.06
1438.99
1439.16
1440.76
1443.36
1445.79
1448.54
1437.55
1438.17
1439.45
1440.59
1441.56
1442.99
1445.71
1448.72
1450.7
1451.76
1435.84
1437.41
1439.72
1441.52
1443.17
1446
1449.75
1452.74
1454.24
1453.81
1434.8
1436.99
1440.18
1442.79
1445.14
1448.73
1452.7
1455.16
1455.99
1454.62
1435.19
1437.36
1440.73
1443.85
1446.98
1450.64
1453.87
1455.68
1456.17
1454.63
1437.04
1438.5
1441.3
1444.63
1448.35
1451.64
1453.7
1454.7
1455.15
1453.87
1440.12
1441.42
1444.78
1448.22
1450.66
1452.16
1452.95
1453.55
1453.95
1452.83
1520.57
1519.83
1517.3
1511.82
1503.03
1496.4
1496.53
1500.45
1505.43
1511.37
1522.26
1521.43
1518.62
1513.55
1506.19
1500.92
1501.08
1504.74
1509.41
1513.85
1523.34
1522.35
1519.16
1514.31
1508.78
1505.31
1506.06
1510.17
1515.04
1519.29
1522.55
1521.79
1518.64
1514.54
1510.82
1508.9
1510.51
1515.01
1520.05
1523.66
1519.59
1519.81
1517.65
1514.61
1512.26
1511.84
1514.25
1518.5
1523.25
1525.88
1517.32
1517.73
1516.37
1514.01
1512.75
1513.96
1517.15
1521.13
1525.5
1527.19
1516.46
1516.72
1515.27
1513.33
1512.91
1514.97
1518.21
1522.16
1526.49
1527.65
1514.93
1516.05
1514.91
1513.11
1512.89
1514.89
1517.69
1521.43
1525.43
1526.35
1513.79
1515.39
1514.88
1513.11
1512.73
1514.04
1516.12
1519.36
1522.86
1524.04
1514.75
1516.25
1516.23
1513.95
1512.52
1512.67
1514.25
1517.43
1521.05
1522.98
1557.59
1556.82
1554.73
1552.41
1549.91
1548.49
1550.72
1555.99
1562.18
1567.28
1559.89
1559.96
1557.89
1555.28
1553.02
1552.43
1555.17
1560.04
1565.76
1569.3
1561.99
1562.07
1559.66
1556.5
1553.87
1553.2
1555.89
1561.17
1567.08
1570.64
1563.93
1562.85
1558.92
1554.91
1552.32
1551.8
1554.73
1560.08
1565.67
1569.46
1565.02
1563.19
1558.29
1553.72
1551.7
1551.59
1554.4
1558.93
1563.82
1567.85
1564.26
1563.21
1558.7
1553.65
1552.04
1552.57
1555.06
1558.86
1563.48
1567.91
1561.81
1562.07
1558.51
1553.81
1552.2
1552.66
1554.93
1558.97
1564.08
1568.46
1559.25
1559.93
1557.41
1553.28
1550.89
1550.73
1553.42
1558.36
1563.95
1567.98
1557.55
1557.58
1555.38
1551.06
1547.54
1547.5
1551.46
1557.16
1562.66
1566.41
1557.38
1555.57
1552.29
1547.36
1543.72
1544.97
1550.44
1556.61
1561.63
1564.9
1573.28
1573.91
1575.33
1578.49
1583.05
1588.69
1594.02
1598.42
1602.82
1605.85
1572.2
1572.56
1573.39
1576.28
1580.53
1585.52
1591.07
1596.79
1601.83
1603.49
1570.48
1569.54
1569.87
1572.99
1577
1580.66
1585.74
1592.67
1598.02
1599.24
1568.68
1565.69
1565.79
1569.82
1574.07
1576.6
1581.28
1587.96
1592.94
1595.92
1568.4
1564.02
1563.42
1567.52
1572.39
1575.18
1579.41
1584.69
1589.86
1595.12
1571.34
1566.96
1564.83
1567.46
1572.88
1576.69
1579.75
1583.93
1589.96
1595.94
1576.48
1572.27
1568.63
1569.81
1574.89
1578.15
1580.06
1584.62
1591.14
1596.35
1580.32
1576.28
1573.01
1573.39
1577
1578.65
1580.57
1585.75
1592
1595.98
1581.9
1577.93
1575.61
1575.8
1577.86
1579.57
1582.48
1587.34
1592.15
1594.94
1582.05
1576.89
1574.19
1574.7
1577.29
1580.85
1584.8
1588.77
1591.63
1593.12
1617.52
1616.94
1615.89
1615.39
1616.46
1619.89
1624.85
1629.91
1633.98
1636.41
1615.64
1613.3
1610.75
1610.38
1612.25
1616.58
1622.63
1628.79
1633.06
1633.45
1612.1
1607.92
1605.38
1606.11
1609.19
1614.27
1621.13
1627.71
1630.79
1629.58
1607.82
1603.2
1602.36
1604.26
1607.77
1613.05
1620.36
1626.77
1628.58
1627.87
1604.37
1601.5
1603.07
1605.57
1608.46
1613.42
1620.32
1626.32
1628.42
1628.98
1603.36
1602.01
1604.9
1608.17
1610.68
1614.95
1620.91
1626.44
1629.27
1630.14
1605.02
1602.7
1605.76
1610.62
1613.78
1617.02
1621.92
1626.81
1629.62
1630.31
1608.78
1604.47
1606.89
1611.93
1616.29
1619.4
1623.9
1627.82
1629.75
1630.09
1614.07
1608.35
1609.11
1613.59
1618.35
1622.29
1626.7
1629.77
1630.41
1630.3
1618.65
1611.81
1611.37
1615.24
1620.17
1625.01
1629.23
1631.15
1630.84
1630.4
1686.79
1685.2
1682.45
1679.85
1678.48
1677.83
1677.15
1676.1
1674.01
1671.59
1684.73
1681.19
1677.93
1676.6
1676.94
1677.41
1677.9
1678.38
1677.45
1673.14
1680.81
1676.3
1673.56
1673.36
1674.58
1676.34
1679.11
1681.26
1680.27
1673.49
1676.37
1673.05
1671.36
1671.35
1672.91
1676.8
1681.6
1683.88
1680.96
1673.57
1672.21
1671.14
1670.62
1670.84
1673.57
1679.36
1684.6
1685.52
1680.56
1674.07
1668.23
1668.45
1669.95
1672.02
1675.8
1681.6
1685.82
1685.19
1680
1674.79
1665.23
1665.23
1668.65
1673.47
1677.27
1681.31
1684.25
1683.41
1679.56
1675.58
1665.01
1663.99
1666.61
1671.83
1675.81
1678.33
1680.97
1681.57
1679.62
1676.92
1667.67
1665.04
1665.63
1668.19
1671.43
1673.79
1677.01
1680.25
1680.51
1679.01
1671.17
1665.7
1664.7
1665.54
1667.19
1669.77
1674.17
1679.66
1681.6
1680.98
1763.61
1761.78
1760.49
1759.69
1758.61
1756.57
1753.34
1750.1
1746.16
1742.33
1761.33
1759.4
1758.32
1757.43
1756.5
1754.56
1751.81
1749.84
1747.17
1742.84
1757.1
1755.27
1754.16
1752.61
1751.65
1750.52
1749.29
1748.85
1747.21
1742.79
1753.23
1752.58
1751.3
1748.81
1747.26
1747.03
1747.47
1747.6
1745.8
1740.73
1751.66
1751.4
1749.05
1745.79
1744.61
1745.72
1746.23
1745.28
1743.07
1737.65
1751.4
1750.24
1746.61
1743.41
1743.13
1744.56
1743.73
1741.89
1739.93
1736.02
1751.06
1749.54
1745.4
1742.51
1742.01
1741.93
1739.58
1737.96
1737.31
1735.54
1751.22
1750.33
1746.32
1742.58
1740.39
1737.54
1734
1733.37
1734.92
1735.42
1750.4
1749.95
1745.73
1740.46
1735.84
1730.46
1726.89
1728.34
1732.81
1735.5
1748.07
1745.99
1740.61
1735.63
1729.72
1723.27
1720.84
1725.02
1732.04
1736.45
1815.93
1816.08
1815.09
1812.73
1810.41
1809.12
1808.96
1811.35
1816.21
1819.15
1814.08
1813.46
1812.43
1810.68
1808.67
1807.09
1807.45
1811.03
1816.45
1819.04
1809.77
1808.87
1808.58
1807.69
1806.3
1805.16
1805.51
1809.29
1814.75
1817.24
1804.77
1804.66
1804.15
1802.63
1801.15
1800.68
1801.01
1804.34
1809.88
1813.15
1801.77
1801.41
1799.08
1796.58
1795.52
1795.77
1794.65
1796.76
1802.63
1807.16
1800.48
1799.74
1795.61
1792.38
1791.74
1790.98
1786.31
1788.04
1794.97
1800.33
1800.66
1800.1
1795.18
1791.01
1789.58
1784.92
1777.66
1780.5
1788.55
1794.62
1801.3
1803.07
1799.54
1793.7
1788.94
1779.39
1771.07
1774.29
1783.28
1790.26
1803.39
1807.3
1805.39
1798.15
1789.48
1776.3
1767.14
1769.94
1779.19
1786.74
1803.4
1807.39
1805.72
1799.2
1790.15
1776.35
1767.16
1769.43
1777.84
1785.42
1844.17
1840.91
1838.58
1839.49
1842.75
1847.82
1852.85
1857.16
1864.57
1871.28
1842.31
1838.24
1837.26
1839.8
1844.25
1850.07
1855.6
1859.19
1865
1871.42
1841.16
1837.93
1836.69
1837.78
1842.63
1850.66
1856.17
1858.26
1863.41
1869.92
1839.67
1837.03
1833.6
1831.27
1835.58
1845.77
1851.26
1852.54
1859.44
1867.75
1835.75
1833.88
1830.38
1828.14
1832.88
1841.54
1842.67
1843.44
1853.82
1864.66
1831.32
1832.39
1831.5
1831.08
1835.37
1837.56
1830.74
1831.58
1845.84
1858.53
1828.28
1833.68
1836.93
1837.8
1838.48
1829.95
1816.82
1819.95
1837.03
1850.44
1824.91
1836.26
1844.16
1844.98
1839.05
1821.76
1807.22
1812.93
1829.93
1842.71
1826.74
1837.66
1846.46
1846.83
1837.45
1817.32
1804.3
1810.1
1824.96
1836.28
1833.74
1834.9
1840.74
1842.49
1835.23
1817.85
1807.06
1811.16
1822.81
1832.36
1853
1846.79
1843.58
1846.68
1856.8
1868.92
1878.82
1882.64
1878.23
1871.35
1860.2
1853.83
1850.3
1852.02
1856.72
1862.42
1869.37
1876.64
1875.94
1868.41
1871.24
1867.36
1860.07
1849.53
1841.23
1842.11
1850.79
1863.31
1868.25
1864.45
1875.45
1871.32
1859.73
1843.43
1831.39
1831.91
1842.14
1857.59
1864.31
1863.4
1869.47
1866.14
1858.79
1848.52
1839.94
1839.08
1846.33
1857.99
1862.42
1864.56
1860.01
1861.99
1863.03
1861.95
1857.88
1852.57
1851.22
1853.81
1857.85
1864.63
1854.15
1862.8
1871.37
1876.03
1873.6
1862.46
1850.58
1847.61
1854.19
1863.45
1853.17
1868.7
1880.67
1886.09
1882.63
1868.06
1851.23
1848.39
1856.21
1864.94
1863.69
1878.59
1888.13
1891.81
1887.3
1872.69
1855.45
1853.08
1860.29
1867.18
1883.72
1887.39
1892.58
1894.61
1891.09
1879.24
1863.55
1859.35
1863.86
1868.53
1896.64
1887.51
1878.68
1871.37
1866.53
1862.18
1860.01
1860.56
1861
1861.98
1909.33
1899.19
1887.53
1872.28
1852.4
1831.15
1819.58
1821.36
1828.97
1835.47
1920.69
1912.83
1897.18
1870.91
1835.29
1803.5
1794.97
1803.94
1814.13
1819.99
1918.62
1910.65
1894.62
1867.2
1831.59
1806.78
1806.31
1813.44
1817.98
1818.51
1908.72
1901.83
1889.56
1867.93
1841.99
1827.35
1824.99
1825.02
1822.9
1819.66
1896.47
1892.48
1885
1871.87
1856.04
1846.77
1838.34
1831.41
1824.52
1821.63
1886.57
1884.32
1881.83
1877.7
1869.04
1862.46
1851.28
1841.8
1834.32
1832.13
1883.02
1881.48
1882.27
1885.36
1882.31
1875.89
1866.68
1858.79
1852.03
1849.01
1888.55
1886.9
1887.98
1895.06
1896.17
1889.92
1883.41
1876.64
1870.21
1865.71
1897.16
1895.73
1897.05
1904.82
1908
1904.12
1898.99
1892.55
1885.32
1879.28
1903.33
1898.34
1889.87
1873.85
1858.2
1846.8
1840.5
1838.84
1843.8
1852.34
1906.81
1897.62
1885.71
1866.53
1844.21
1825.17
1815.71
1815.73
1823.18
1830.79
1908.72
1900.67
1885.09
1859.54
1831.82
1814.52
1811.65
1816.31
1822.69
1824.23
1906.34
1894.52
1875.19
1849.75
1825.89
1818.07
1822.63
1828.35
1829.69
1824.88
1902.09
1887.69
1867.58
1842.28
1823.36
1823.93
1829.48
1832.4
1828.32
1818.91
1898.84
1886.08
1865.1
1839.73
1823.26
1826.19
1829.4
1828.8
1821.53
1810.4
1892.67
1880.37
1861.99
1841.92
1826.57
1829.24
1833.49
1831.65
1823.8
1814.31
1877.48
1864.01
1852.77
1845.35
1834.08
1833.66
1840.63
1839.85
1833.6
1827.04
1861.04
1847.39
1842.42
1847.52
1844.22
1839.15
1844.38
1846.46
1842.01
1836.39
1852.1
1841.68
1840.25
1850.2
1853.67
1846.32
1843.88
1847.22
1846.2
1842.66
1931.4
1931.94
1927.53
1924.52
1924.83
1923.72
1922.36
1925.24
1932.78
1939.37
1921.7
1925.64
1930.34
1931.04
1926.82
1920.92
1916.9
1918.52
1925.12
1926.04
1913.33
1918.22
1923.28
1922.95
1920.13
1917.28
1913.5
1913.48
1920.54
1921.04
1908.67
1904.72
1904.98
1907.18
1912.29
1914.87
1910.6
1908.54
1914.69
1920.13
1907.14
1893.56
1889.83
1893.49
1902.61
1908.2
1903.37
1900.07
1905.29
1913.41
1913.63
1895.44
1886.73
1885.96
1892.27
1899.07
1895.38
1890.7
1893.51
1897.8
1918.09
1899.96
1890.77
1888.27
1886.39
1890.2
1890.78
1884.67
1884.09
1883.61
1900.67
1886.7
1886.64
1896.22
1888.68
1883.01
1887.18
1884.75
1883.1
1882.73
1884.2
1871.18
1874.31
1896.94
1894.79
1880.11
1879.67
1883.25
1884.52
1885.65
1876.54
1862.78
1865.99
1889.66
1895.37
1879.72
1867.37
1870.15
1877.61
1883.33
1959.97
1964.78
1967.13
1966.09
1960.1
1958.96
1969.38
1978.32
1982.89
1990.68
1956.01
1973.05
1984.62
1982.36
1969.73
1959.49
1957.68
1955.95
1957.93
1956.18
1946.97
1966.55
1980.58
1981.24
1969.39
1951.47
1937.35
1934.29
1939.74
1930.79
1925.35
1940.74
1958.6
1969.09
1962.44
1938.34
1917.74
1923.24
1938.45
1933.12
1887.93
1900.48
1927.41
1949.98
1951.8
1928.35
1904.66
1915.58
1939.88
1950.11
1849.99
1856.98
1891.13
1923.96
1937.95
1925.31
1904.01
1907.97
1932.27
1952.51
1822.63
1818.15
1851.81
1894.02
1920.07
1920.95
1912.2
1906.48
1920.85
1937.14
1805.79
1789.78
1818.45
1872.87
1908.73
1911.25
1914.58
1910.69
1914.4
1923.24
1802.07
1781.78
1803.79
1865.58
1907.89
1906.92
1907.06
1912.02
1914.7
1919.05
1810.08
1788.11
1814.27
1876.19
1907.56
1905.4
1896.69
1902.58
1910.43
1917.23
1898.34
1897.22
1887.16
1871.62
1857.44
1853.88
1871.58
1900.26
1920.27
1927.98
1889.06
1890.13
1884.22
1871.23
1850.04
1827.86
1828.38
1858.56
1880.53
1871.1
1864.89
1864.78
1872.86
1872.44
1845.12
1803.74
1794.13
1819.45
1843.52
1817.02
1817.76
1819.26
1842.28
1857.33
1835.24
1793.54
1788.56
1816.71
1838.16
1793.7
1759.32
1756.96
1785
1816.2
1828.59
1815.74
1818.58
1847.99
1863.29
1814.18
1710.35
1690.26
1713.76
1757.17
1815.54
1857.88
1871.83
1884.71
1889.44
1854.73
1692.85
1650.06
1663.27
1710.12
1790.63
1870.68
1908.05
1911.72
1904.29
1885.9
1701.05
1650.05
1654.55
1695.97
1778.22
1847.93
1896.85
1916.54
1908.61
1900.47
1731.09
1687.86
1677.6
1719.88
1792.53
1826.12
1855
1890.05
1905.08
1908.31
1767.9
1736.21
1729.63
1781.53
1821.4
1816.45
1822.45
1853.45
1891.52
1909.68
1887.39
1875.66
1859.12
1842.41
1829.92
1830.29
1853.43
1883.44
1899.42
1900.4
1878.5
1867.3
1858.47
1845.15
1816.56
1796.84
1811.99
1849.2
1869.57
1869.65
1859.62
1852.69
1861.06
1852.38
1801.21
1761.23
1765.74
1805.8
1828.96
1823.07
1829.34
1825.17
1840.88
1835.08
1790.69
1756.2
1759.29
1793.09
1805.07
1780.14
1798.35
1779.48
1780.78
1781.26
1794.96
1808.02
1821.06
1839.15
1826.91
1771.62
1783.81
1741.4
1724.17
1728.84
1798.77
1899.03
1937.83
1930.94
1884.17
1799.23
1798.2
1749.57
1724.11
1741.08
1814.47
1941.79
2000.97
2000.56
1944.18
1857.76
1831.13
1802.23
1794.84
1809.32
1852.2
1926.2
1986.29
2006.83
1976.96
1925.82
1863.9
1858.58
1868.98
1884.53
1895.57
1892.91
1904.64
1936.64
1967.97
1972.54
1885.81
1885.99
1897.27
1916.81
1909.2
1856.92
1846.57
1882.34
1944.03
1980.03
1989.78
1980.36
1952.93
1907.03
1880.39
1884.85
1908.23
1924.17
1937.88
1953.21
1995.09
1990.58
1960.86
1897.48
1852.11
1841.46
1861.48
1888.26
1917.66
1947.88
1992.57
1989.92
1963.34
1893.36
1842.73
1826.65
1838.57
1865.42
1903.27
1936.01
1976.93
1966.63
1938.82
1881.34
1841.81
1835.62
1847.1
1866.32
1894.73
1900.23
1947.25
1916.21
1876.53
1844.67
1852.06
1878.38
1895.63
1900.16
1893.22
1845.41
1922.86
1873.45
1835.6
1831.76
1876.15
1942.51
1968.71
1953.42
1907.78
1816.51
1920.63
1888.43
1859.37
1863.7
1907.13
1974.14
1998.17
1981.59
1934.39
1851.53
1930.13
1930.1
1934.1
1946.52
1945.92
1947.76
1956.26
1958.06
1952.34
1928.99
1937.85
1954.97
1978.99
1986.63
1942.11
1887.07
1871.52
1902.94
1955.1
1990.14
1939.68
1957.69