/*--------------------------------*- C++ -*----------------------------------*\
| =========                 |                                                 |
| \\      /  F ield         | OpenFOAM: The Open Source CFD Toolbox           |
|  \\    /   O peration     | Version:  2406                                  |
|   \\  /    A nd           | Website:  www.openfoam.com                      |
|    \\/     M anipulation  |                                                 |
\*---------------------------------------------------------------------------*/
FoamFile
{
    version     2.0;
    format      ascii;
    arch        "LSB;label=32;scalar=64";
    class       surfaceScalarField;
    location    "0.2";
    object      phi;
}
// * * * * * * * * * * * * * * * * * * * * * * * * * * * * * * * * * * * * * //

dimensions      [0 3 -1 0 0 0 0];

oriented        oriented;

internalField   nonuniform List<scalar> 
73500
(
7.66031e-05
4.96257e-05
6.13002e-05
-5.77776e-05
-5.00811e-05
9.56719e-05
2.99645e-05
7.84224e-05
-4.42647e-05
0.000118238
1.36179e-05
8.89653e-05
-3.81314e-05
0.000134723
6.32849e-06
0.00010024
-3.46409e-05
0.000136706
7.25538e-06
0.000113412
-3.39455e-05
0.000121857
1.38591e-05
0.000125519
-3.62474e-05
9.43647e-05
2.304e-05
0.000132309
-4.02452e-05
6.03789e-05
3.23237e-05
0.000131439
-4.42317e-05
2.38935e-05
4.09467e-05
0.00012292
-4.61655e-05
4.51136e-05
0.000104396
-1.10014e-05
-4.42094e-05
7.02125e-05
3.32919e-05
8.28376e-05
-5.39152e-05
8.8286e-05
2.1737e-06
9.33687e-05
0.000114253
-2.19919e-05
9.66612e-05
0.000139385
-3.25469e-05
0.000102018
0.000150674
-3.01357e-05
0.00011385
0.000141032
-1.8889e-05
0.000129313
0.000112817
-4.03547e-06
0.000141388
7.33642e-05
1.09033e-05
0.000145535
2.98317e-05
2.48674e-05
0.000141009
3.38038e-05
0.000124192
-1.15958e-05
5.89319e-05
1.46598e-05
9.20329e-05
-4.53833e-05
7.862e-05
-2.12391e-05
9.16217e-05
0.000111159
-4.9064e-05
8.56295e-05
0.000147047
-6.05103e-05
8.44982e-05
0.000168633
-5.63733e-05
9.59279e-05
0.00016396
-4.20392e-05
0.00011726
0.000134355
-2.36706e-05
0.000137752
8.93081e-05
-5.61379e-06
0.000148975
3.91357e-05
1.03609e-05
0.000149076
2.0803e-05
0.000135316
-7.66469e-06
5.02692e-05
8.38832e-07
9.15018e-05
-3.83822e-05
7.17732e-05
-3.28261e-05
8.05106e-05
0.000110558
-5.94254e-05
6.58777e-05
0.000155171
-6.91992e-05
5.90484e-05
0.000184969
-6.31735e-05
7.05805e-05
0.000184501
-4.80559e-05
9.79935e-05
0.000153442
-3.03769e-05
0.000127804
0.00010306
-1.37204e-05
0.000147386
4.68443e-05
2.10191e-07
0.000152712
8.5206e-06
0.000141794
-4.77491e-06
4.55712e-05
-3.84375e-06
8.36957e-05
-3.38613e-05
6.91787e-05
-2.89492e-05
6.48132e-05
0.000111732
-4.94936e-05
4.26085e-05
0.000161663
-5.54489e-05
3.25038e-05
0.000196415
-4.90405e-05
4.60359e-05
0.000198437
-3.63251e-05
7.89691e-05
0.000166412
-2.37387e-05
0.00011641
0.000112283
-1.33052e-05
0.000143343
5.1862e-05
-5.69193e-06
0.000153271
-2.58928e-06
0.000144351
-2.574e-06
4.55666e-05
-5.67712e-07
7.43402e-05
-3.29392e-05
7.048e-05
-1.25864e-05
5.06936e-05
0.000114329
-2.26979e-05
2.47354e-05
0.000164884
-2.45535e-05
1.4609e-05
0.00020016
-1.97807e-05
3.0561e-05
0.000202444
-1.30989e-05
6.73933e-05
0.000169927
-9.24999e-06
0.000108866
0.000114598
-8.14177e-06
0.000139566
5.30203e-05
-9.23979e-06
0.000151784
-1.27917e-05
0.000143299
-1.92077e-06
5.07275e-05
5.44133e-06
6.95062e-05
-3.80532e-05
7.44178e-05
7.24581e-06
4.64997e-05
0.000115743
7.69304e-06
2.14368e-05
0.000162802
9.38485e-06
1.3456e-05
0.000194002
1.08545e-05
3.1201e-05
0.000194207
9.49195e-06
6.81747e-05
0.000161883
3.97673e-06
0.000108738
0.00010823
-4.69405e-06
0.000138122
4.88268e-05
-1.40295e-05
0.000148946
-2.2405e-05
0.000138821
-4.14814e-06
5.88514e-05
7.45105e-06
7.01007e-05
-4.78517e-05
7.84547e-05
1.84152e-05
5.41637e-05
0.000113732
2.66697e-05
3.44453e-05
0.000152543
2.98623e-05
3.03374e-05
0.000176176
2.74946e-05
4.85309e-05
0.000172796
1.93923e-05
8.12126e-05
0.000141208
6.09533e-06
0.000115563
9.22781e-05
-8.96187e-06
0.000138271
3.87304e-05
-2.25175e-05
0.000144104
-3.18527e-05
0.000130539
-9.75662e-06
6.85288e-05
1.55761e-06
7.16571e-05
-5.8128e-05
8.21712e-05
1.37066e-05
6.83907e-05
0.00010701
2.32377e-05
5.97147e-05
0.000132914
2.53997e-05
6.1352e-05
0.000145989
1.98374e-05
7.75255e-05
0.000137336
7.71156e-06
0.000102493
0.000108376
-7.99207e-06
0.000124996
6.70252e-05
-2.38078e-05
0.000136855
2.21718e-05
-3.67641e-05
0.000135448
-4.22999e-05
0.000117379
-1.78719e-05
7.41073e-05
6.54118e-05
-1.27826e-05
-5.99752e-05
8.29945e-05
7.63773e-05
-5.0425e-06
9.62034e-05
8.10033e-05
-4.40429e-07
0.000107057
8.93147e-05
-1.70736e-06
0.00010764
0.00010265
-9.08982e-06
9.41437e-05
0.000116535
-2.0484e-05
6.84056e-05
0.000125365
-3.34941e-05
3.5616e-05
0.000125658
-4.50987e-05
1.84909e-06
0.000116589
-5.27799e-05
9.46368e-05
-2.70934e-05
-5.00798e-05
-2.62516e-06
-0.000150213
7.60182e-05
4.28124e-05
0.000125538
4.26094e-05
-0.000172821
9.4975e-05
0.000140802
9.79907e-05
-0.000184227
0.000105235
0.000143733
0.000156243
-0.000185524
0.000125018
0.00013332
0.00020215
-0.000165875
0.000158238
0.000105081
0.000219369
-0.000125053
0.000194792
6.73087e-05
0.000204804
-7.79223e-05
0.000218956
3.39765e-05
0.000168731
-4.12826e-05
0.000223011
1.34911e-05
0.00012338
-1.96125e-05
0.000210307
4.84769e-06
-9.85733e-06
0.000178026
7.53727e-05
6.65968e-06
-4.10423e-06
-0.000173447
9.96036e-05
3.8468e-05
3.27551e-05
-0.000200337
0.000110869
8.10894e-05
-0.000212947
0.000105855
0.000139596
-0.000222189
0.000108416
0.000193615
-0.000214906
0.000135313
0.000223561
-0.000181157
0.000180385
0.000219336
-0.000130191
0.000221919
0.000186505
-8.09604e-05
0.000241627
0.000137537
-4.50189e-05
0.000238315
-2.42131e-05
0.000211003
8.35188e-05
-6.98152e-07
-0.000190034
0.000105568
3.40189e-05
3.06168e-05
-0.000216813
0.000105918
7.39688e-05
-0.000223278
8.30546e-05
0.000132394
-0.000232202
6.58603e-05
0.000191279
-0.000234898
8.48237e-05
0.000228488
-0.000213288
0.000137986
0.000230859
-0.000166936
0.000196877
0.00020017
-0.000112491
0.000235371
0.00014838
-6.69224e-05
0.00024602
-3.87897e-05
0.000226348
9.10275e-05
7.15535e-06
-0.000193585
9.42241e-05
2.61934e-05
3.74558e-05
-0.000218126
8.13645e-05
8.15766e-05
-0.000214428
4.39672e-05
0.000140209
-0.00021681
1.47454e-05
0.000199789
-0.000223552
2.7526e-05
0.000238893
-0.000215348
8.73524e-05
0.00024263
-0.000178749
0.000161224
0.000211609
-0.000126667
0.000217118
0.000156057
-7.87667e-05
0.000243718
-4.87639e-05
0.000232615
9.46422e-05
1.16954e-05
-0.000175364
6.52606e-05
2.25004e-05
4.69093e-05
-0.000194296
3.60391e-05
9.78528e-05
-0.000182569
-9.83286e-06
0.000160367
-0.000177514
-3.99703e-05
0.000219589
-0.000182869
-2.61112e-05
0.00025761
-0.00018379
3.59263e-05
0.000258032
-0.000160204
0.00012352
0.000222953
-0.00011854
0.000195251
0.000162431
-7.6803e-05
0.000235542
-5.10884e-05
0.000231789
9.68845e-05
1.12268e-05
-0.000129946
3.07222e-05
2.16909e-05
5.21018e-05
-0.000141853
-1.23105e-05
0.000112705
-0.000124924
-6.28946e-05
0.000182696
-0.000115242
-8.84018e-05
0.000244486
-0.000119758
-6.63356e-05
0.000279914
-0.000126823
1.99657e-06
0.000274437
-0.000116628
9.72336e-05
0.000232916
-8.93778e-05
0.000177179
0.000166856
-6.02766e-05
0.000225272
-4.3833e-05
0.000225471
9.68681e-05
1.0544e-05
-6.3642e-05
8.92206e-06
1.94984e-05
5.53687e-05
-6.86177e-05
-4.02496e-05
0.00012302
-5.05842e-05
-8.96339e-05
0.000199873
-4.036e-05
-0.00010836
0.000264625
-4.67496e-05
-7.84562e-05
0.000296039
-5.84843e-05
-4.55196e-06
0.000284407
-5.85629e-05
8.90532e-05
0.000236699
-4.6589e-05
0.000168129
0.000166215
-3.34179e-05
0.000216023
-2.75105e-05
0.000215316
9.27458e-05
1.43592e-05
4.92175e-06
8.25779e-06
1.32566e-05
6.02749e-05
7.82604e-06
-3.75004e-05
0.000129968
2.35097e-05
-7.9016e-05
0.000208055
2.9972e-05
-8.95095e-05
0.000271482
2.13591e-05
-5.58963e-05
0.000297559
7.16073e-06
1.59215e-05
0.000279823
-1.23276e-06
0.000100886
0.000228439
-2.88413e-06
0.000169557
0.000157389
-3.83079e-06
0.000208478
-6.12495e-06
0.000201907
8.32036e-05
2.4061e-05
5.51308e-05
2.35574e-05
3.70083e-06
6.85595e-05
6.51375e-05
-6.76632e-06
0.000133442
7.65058e-05
-3.16384e-05
0.000203657
7.78868e-05
-3.12868e-05
0.000256612
6.779e-05
2.44846e-06
0.000272946
5.2173e-05
6.40273e-05
0.000250638
3.8153e-05
0.00012975
0.000200051
2.73695e-05
0.000178467
0.00013466
1.77608e-05
0.000199618
1.32256e-05
0.000182573
6.68677e-05
3.12048e-05
4.02973e-05
6.7864e-05
1.75731e-06
7.33691e-05
3.74886e-05
8.03586e-05
0.000127321
3.67249e-05
8.63396e-05
0.000179221
5.05754e-05
8.40485e-05
0.00021192
8.16471e-05
7.45387e-05
0.000214166
0.000123152
6.09154e-05
0.00018783
0.000159973
4.6844e-05
0.000143469
0.000179703
3.42247e-05
9.32276e-05
0.000176889
2.37881e-05
0.000147135
4.28258e-05
2.35438e-05
-1.9855e-05
-8.83804e-05
0.000126031
-1.88228e-06
9.30378e-05
-6.07676e-05
-5.45191e-05
0.000145016
7.79636e-05
-8.871e-05
-8.4862e-05
0.000146166
0.000105473
-8.51271e-05
-0.000138376
0.000158358
0.000135055
-5.19974e-05
-0.000159763
0.000195012
0.000123918
-7.67108e-06
-0.00013462
0.000242849
7.66211e-05
2.58709e-05
-8.75048e-05
0.000279065
2.79592e-05
4.16751e-05
-4.99602e-05
0.000289236
-3.8825e-09
4.2425e-05
-3.27649e-05
0.000275549
-2.9667e-06
-3.39818e-05
0.000235714
2.76718e-05
1.53849e-05
1.73399e-05
-0.000101518
0.000152552
-2.4582e-05
-2.7508e-05
-3.78807e-05
0.000171256
-7.66809e-05
-5.76622e-05
0.000160438
-9.89962e-05
-0.000120936
0.000144364
-8.46668e-05
-0.000167394
0.000158744
-4.31851e-05
-0.000173735
0.000208104
3.26023e-06
-0.000149459
0.000267255
3.30584e-05
-0.000116074
0.000305667
4.25252e-05
-8.78533e-05
0.000308298
-7.24449e-05
0.000272528
3.83378e-05
5.27436e-05
-0.000125531
0.000157577
-4.40556e-05
2.16779e-05
-3.26697e-05
0.000168927
-2.02024e-05
-3.01039e-05
0.000133463
-5.32703e-05
-8.50344e-05
9.6724e-05
-5.92955e-05
-0.000142461
9.83307e-05
-3.59622e-05
-0.000176961
0.000150307
3.27958e-06
-0.000186249
0.000226132
3.36896e-05
-0.000171723
0.000288876
4.5495e-05
-0.000141024
0.000311977
-0.000113776
0.000287582
4.45435e-05
6.03174e-05
-0.00014823
0.000140261
-4.43494e-05
5.11141e-05
-3.45718e-05
0.000130085
3.92053e-05
-3.36097e-06
6.64112e-05
2.10822e-05
-3.45133e-05
1.7318e-05
8.13121e-06
-8.89729e-05
2.07257e-05
1.588e-05
-0.000144068
8.05072e-05
3.5567e-05
-0.000190863
0.000178675
4.84401e-05
-0.000203874
0.000264983
5.21502e-05
-0.00017887
0.000302491
-0.000144904
0.000288425
4.65819e-05
3.24292e-05
-0.000157339
9.69028e-05
-1.68679e-05
4.61845e-05
-3.45964e-05
5.74294e-05
6.58692e-05
1.88061e-05
-1.65535e-05
7.38969e-05
1.64378e-05
-6.48556e-05
7.46347e-05
-2.40037e-05
-5.90453e-05
8.32794e-05
-8.99966e-05
5.56024e-06
9.11729e-05
-0.000166742
0.000123283
8.02068e-05
-0.000208042
0.000238791
6.83289e-05
-0.000192885
0.000286002
-0.000156926
0.000278842
5.24802e-05
-1.00891e-05
-0.000143873
3.6585e-05
2.62024e-05
2.0535e-05
-2.77386e-05
-1.84345e-05
6.18211e-05
3.88708e-05
-9.30614e-05
9.75197e-05
5.88073e-05
-0.000135843
0.000124923
3.15235e-05
-0.000118538
0.00014832
-3.82813e-05
-4.21611e-05
0.00015341
-0.00013147
8.75068e-05
0.00012508
-0.000188186
0.000213562
9.51733e-05
-0.000179488
0.000266135
-0.000144643
0.000262859
6.45011e-05
-4.92211e-05
-0.000104455
-1.41566e-05
6.66192e-05
-7.90399e-06
-7.41618e-06
-7.34423e-05
5.0245e-05
6.16042e-05
-0.000142556
0.00011181
9.06453e-05
-0.000173574
0.000166967
6.74192e-05
-0.000141125
0.000208268
-4.19141e-06
-5.04385e-05
0.000214189
-9.63226e-05
7.76272e-05
0.000175774
-0.000148296
0.000193451
0.000129087
-0.000139823
0.000246616
-0.000108652
0.000245086
8.21563e-05
-7.73077e-05
-4.44316e-05
-3.66637e-05
9.40813e-05
-2.86094e-05
2.58899e-05
-9.2967e-05
4.50141e-05
8.18566e-05
-0.000146021
0.00012954
0.000103894
-0.000160725
0.000208303
7.79266e-05
-0.000118479
0.000262523
1.18217e-05
-2.60402e-05
0.000265295
-6.00231e-05
8.93218e-05
0.000220923
-9.20779e-05
0.000182882
0.000161294
-8.11564e-05
0.000232448
-5.78217e-05
0.000230143
0.000100334
-8.69221e-05
2.24737e-05
-2.92125e-05
0.000102448
-3.21929e-05
6.22637e-05
-7.31387e-05
5.43594e-05
9.32929e-05
-0.000103837
0.00015479
9.84304e-05
-0.000100455
0.00024475
7.05164e-05
-5.46769e-05
0.000296559
2.29263e-05
2.64315e-05
0.000289562
-1.86721e-05
0.000119972
0.000242192
-3.07299e-05
0.000187029
0.000177893
-2.20682e-05
0.000224986
-8.88646e-06
0.000215263
0.000112605
-7.77443e-05
-1.06359e-06
6.73572e-05
9.70902e-05
-1.86365e-05
-2.11494e-05
8.17939e-05
7.20532e-05
-2.68181e-05
8.78679e-05
0.000170277
-7.82831e-06
8.04113e-05
0.000247807
3.65764e-05
5.91156e-05
0.000279957
0.000100264
3.38439e-05
0.000264465
0.000159416
1.60264e-05
0.000218624
0.000199779
1.18886e-05
0.000164305
0.000209593
1.50427e-05
0.000184535
0.000106341
2.40086e-05
6.74107e-05
0.000171774
0.000176638
-0.000136079
-0.000120255
-4.83546e-05
0.000201119
0.000207627
-0.00011409
-0.000170898
0.00012871
0.000214699
-3.80409e-05
-0.000251725
2.73777e-05
0.000218306
2.86978e-05
-0.000260226
-3.26875e-05
0.000224144
4.58475e-05
-0.000209452
-4.69092e-05
0.00023763
3.4599e-05
-0.000139722
-4.77089e-05
0.000262602
2.75282e-05
-8.93688e-05
-5.62976e-05
0.00028862
3.75295e-05
-6.63068e-05
-7.41652e-05
0.000297705
5.75432e-05
-9.84219e-05
0.000264804
-5.84444e-05
8.36359e-05
0.000146855
0.000192351
0.000192981
-0.000177952
6.73724e-05
0.000257938
0.000224717
-3.26092e-05
0.000202095
0.000223354
-0.000131035
9.82373e-05
0.000208357
-0.000193242
1.36475e-05
0.000207979
-0.000194825
-2.86058e-05
0.000223226
-0.000148508
-4.87393e-05
0.000253286
-9.62425e-05
-7.42463e-05
0.00030124
-6.34155e-05
-0.000106736
0.000333236
-0.000133774
0.000306879
-4.46599e-05
0.00018605
0.000210703
0.00017863
-0.000194641
0.000147859
0.000306319
0.000188748
9.48416e-05
0.000265747
0.000157068
1.35919e-05
0.00018145
0.000131065
-7.52989e-05
0.000103199
0.000133132
-0.000124687
4.18396e-05
0.000164249
-0.0001196
-7.60158e-06
0.000215795
-8.62585e-05
-7.27572e-05
0.000288381
-5.86474e-05
-0.000135762
0.000341278
-0.000174375
0.00032998
-4.08733e-05
0.000167103
0.000229099
0.000152524
-0.00016524
0.00016029
0.000344778
0.000125552
0.000138525
0.00032101
6.15739e-05
7.76649e-05
0.000265073
2.50283e-05
-4.81245e-06
0.000204134
3.4214e-05
-6.08064e-05
0.000139787
7.2753e-05
-7.35275e-05
6.83409e-05
0.000153608
-5.88925e-05
-4.60975e-05
0.000262525
-4.55762e-05
-0.000147648
0.000330657
-0.000206274
0.000335352
-4.00846e-05
0.000103745
0.000233319
0.000120095
-9.79049e-05
0.000114564
0.0003546
6.19541e-05
0.00010784
0.000355125
-1.8666e-05
6.6047e-05
0.000335218
-6.73914e-05
8.90433e-06
0.000293921
-6.45461e-05
-2.79269e-05
0.000230506
-1.78375e-05
-3.26839e-05
0.000141527
9.2127e-05
-2.20687e-05
-1.46832e-05
0.000237177
-1.94959e-05
-0.000148973
0.000314319
-0.000225007
0.000325422
-2.71634e-05
1.97545e-05
0.00020815
8.23057e-05
-8.54541e-06
3.7646e-05
0.000328064
1.36627e-05
3.92404e-05
0.000359391
-7.59261e-05
2.23888e-05
0.000374699
-0.00013588
1.07318e-07
0.00035259
-0.000130628
-8.71921e-06
0.000288062
-6.2816e-05
6.83304e-06
0.000176845
7.18307e-05
2.23325e-05
-6.64484e-06
0.000228392
1.96975e-05
-0.000154423
0.000302035
-0.000233053
0.000308195
1.18819e-06
-6.13731e-05
0.000155861
4.92982e-05
7.93084e-05
-4.19206e-05
0.000275417
-1.89034e-05
-2.84366e-05
0.000335615
-0.000111625
-1.65445e-05
0.000373433
-0.000163195
-4.10536e-06
0.000360089
-0.000138139
1.88412e-05
0.000287484
-4.58196e-05
5.9363e-05
0.000151431
9.5764e-05
8.17788e-05
-3.51096e-05
0.000233087
7.37006e-05
-0.00017002
0.000294859
-0.000231185
0.000289048
4.50546e-05
-0.000126076
0.000101346
2.48175e-05
0.000145664
-0.000103015
0.000215066
-3.54135e-05
-7.02046e-05
0.000285733
-0.000108683
-2.57102e-05
0.00032418
-0.000134858
2.46494e-05
0.000303273
-8.87042e-05
8.35833e-05
0.00021574
1.38655e-05
0.000142667
6.90256e-05
0.000143083
0.00016252
-8.77076e-05
0.000243367
0.000140931
-0.000183004
0.00028874
-0.000214019
0.000269893
9.96155e-05
-0.000168232
6.5302e-05
1.07107e-05
0.000189279
-0.00013258
0.000154611
-2.89538e-05
-7.16423e-05
0.000210277
-6.8859e-05
1.18168e-05
0.000228891
-6.63135e-05
0.00010354
0.00018982
-8.87287e-06
0.000190799
9.51921e-05
8.57981e-05
0.000246832
-2.73468e-05
0.000186377
0.00024653
-0.000127355
0.000248987
0.000205802
-0.000173514
0.000274109
-0.000179582
0.000246772
0.000153708
-0.000185851
1.20044e-05
4.90398e-05
0.00020962
-0.000127774
-4.63554e-06
9.71082e-05
-3.40895e-05
-1.37892e-05
0.000122659
8.42381e-05
8.06073e-06
0.000115404
0.000200887
6.31112e-05
6.83304e-05
0.000284794
0.000137743
-4.51048e-06
0.00031366
0.000196059
-7.39708e-05
0.000291857
0.00022687
-0.000116768
0.000244351
0.000229485
-0.000132292
0.000200423
0.000182668
-0.000123161
0.000231506
0.000311017
0.00013378
-0.000235897
-0.000230291
0.000170146
0.000320934
0.000203487
-0.000222608
7.76309e-05
0.000257003
0.000249197
-0.000159392
-1.88522e-05
0.000162984
0.000278602
-8.11674e-05
-9.62533e-05
7.14614e-05
0.000283268
-7.55375e-06
-0.000139908
4.13498e-06
0.000275562
4.36035e-05
-0.000153804
-3.34454e-05
0.000275225
7.3974e-05
-0.000149614
-5.18884e-05
0.000281091
9.16e-05
-0.00014056
-6.93805e-05
0.000288482
0.000102243
-9.17272e-05
0.000257961
-0.000118448
0.000100454
0.000316605
0.000365997
0.000127127
-0.000275868
0.000319497
0.00038051
0.000189917
0.000287922
0.000324197
0.000219382
0.000205843
0.00024283
0.000247103
8.94426e-05
0.000160062
0.000276825
-1.99361e-05
8.91155e-05
0.00028945
-9.3359e-05
3.96108e-05
0.000292932
-0.000125313
1.19777e-05
0.000306213
-0.000129548
-2.69248e-05
0.000326259
-8.07506e-05
0.00030288
-0.000115208
0.000345601
0.000424766
0.000105195
-0.000301531
0.000365859
0.000427536
0.000148189
0.000351852
0.000375491
0.000148413
0.000274222
0.000321859
0.000161001
0.000146491
0.000256804
0.00019934
2.1711e-05
0.000185487
0.000230874
-6.30002e-05
0.000134576
0.000244784
-0.000107828
0.000103169
0.000281059
-0.000121982
3.27459e-05
0.000329467
-6.40171e-05
0.00032185
-0.000107132
0.000333321
0.000477575
0.000102293
-0.00030713
0.000327157
0.000458282
0.000126114
0.000287289
0.000403562
9.9839e-05
0.000199847
0.000377732
8.44056e-05
8.55011e-05
0.000334853
0.000100036
-1.26413e-05
0.000274372
0.000112913
-7.07653e-05
0.000235061
0.000144799
-0.000105884
0.000200504
0.000236034
-0.000125137
9.37134e-05
0.000321026
-5.0809e-05
0.000329959
-0.000108914
0.000285984
0.000506802
0.000115086
-0.000281893
0.000237059
0.000471467
0.000122271
0.000163902
0.000422953
6.0553e-05
7.50373e-05
0.00042362
8.35702e-07
-1.00642e-05
0.000398165
-1.78275e-05
-7.39237e-05
0.000350742
-4.49593e-06
-0.000110425
0.000322218
6.99771e-05
-0.000124403
0.000276026
0.000206789
-0.00012955
0.000131075
0.000311327
-5.5016e-05
0.000329967
-0.000106637
0.000206948
0.000494247
0.00013173
-0.000215036
0.000132056
0.000470006
0.000114637
4.16941e-05
0.000442969
1.84111e-05
-3.94833e-05
0.000457782
-6.67107e-05
-0.00010153
0.000439971
-8.86141e-05
-0.000149081
0.000401064
-4.274e-05
-0.000173955
0.000370293
7.45531e-05
-0.000161383
0.000294818
0.000225282
-0.000133501
0.000115483
0.000316444
-8.77275e-05
0.000327913
-9.83312e-05
0.000113252
0.000433634
0.000143477
-0.000117106
3.7096e-05
0.000442008
0.000108822
-5.27592e-05
0.000440548
2.50148e-06
-0.00012442
0.000457534
-7.08349e-05
-0.000180024
0.000441282
-6.35827e-05
-0.000224598
0.000402215
1.96112e-05
-0.000234093
0.000349385
0.000151077
-0.000189386
0.000236048
0.000272731
-0.000126343
3.73999e-05
0.000335142
-0.000143919
0.000324014
-8.39212e-05
2.06066e-05
0.000337793
0.000141012
-1.23034e-05
-3.80722e-05
0.000382584
0.000104502
-0.000110954
0.000399452
2.59215e-05
-0.000171567
0.000410914
-7.79959e-06
-0.000222305
0.000388601
3.52804e-05
-0.000254321
0.000335512
0.000135438
-0.000233113
0.000249059
0.00024611
-0.000158045
0.000107034
0.000322149
-8.6804e-05
-7.30559e-05
0.000353079
-0.000198725
0.000313574
-5.59706e-05
-5.1039e-05
0.000225925
0.00012478
7.48435e-05
-7.79634e-05
0.000292756
0.000108014
-0.000117864
0.000316358
7.40559e-05
-0.000150437
0.000318712
7.90734e-05
-0.000171962
0.000284018
0.000139351
-0.000165378
0.000210875
0.000227418
-0.000109019
9.96056e-05
0.00030426
-3.75607e-05
-3.70076e-05
0.000346388
-2.21147e-06
-0.000157292
0.000345568
-0.000221361
0.000289462
-5.11301e-06
-9.06116e-05
0.00010046
0.000107512
0.00014182
-6.89213e-05
0.000103112
0.00018026
-5.50216e-05
0.000103318
0.000203365
-3.6952e-05
0.000130865
0.000197123
-8.23919e-06
0.000185107
0.000154246
3.88091e-05
0.000247584
7.64283e-05
9.30355e-05
0.000286005
-2.27812e-05
0.000122024
0.00029263
-0.000112825
0.000106592
0.000276939
-0.000173179
0.000232841
5.89523e-05
-0.000194242
0.000229946
0.000273393
4.20775e-05
-0.000173877
-0.000204088
0.000266737
0.000298263
0.000146298
-0.000247842
0.000266277
0.000307939
0.000234636
-0.000262352
0.000211104
0.000278292
0.000310346
-0.000223571
0.000120034
0.000198895
0.000352926
-0.000143072
2.84648e-05
0.000112373
0.000360165
-6.61911e-05
-3.55564e-05
5.41912e-05
0.000342685
-1.32452e-05
-5.94524e-05
1.96544e-05
0.000305049
2.3329e-05
-5.47823e-05
1.2011e-05
0.000268158
4.27601e-05
2.13452e-05
0.000218712
-3.80413e-05
2.98535e-05
0.00023071
0.000274915
8.9007e-05
-0.000164003
0.000288739
0.00027756
0.000178819
0.000314436
0.000292445
0.000236443
0.000277877
0.000289638
0.000301062
0.000194504
0.000238438
0.000352418
0.000101026
0.000158128
0.000374405
3.00476e-05
9.10765e-05
0.000369326
-2.62326e-06
6.85838e-05
0.000331822
-1.77074e-05
8.8979e-05
0.000300384
0.000102134
0.000251906
-2.3033e-05
0.00019865
0.000252114
0.000130735
-0.000171244
0.000226982
0.000217517
0.000207306
0.000223807
0.000248096
0.000224771
0.000175429
0.000273118
0.000257189
0.000108973
0.00023727
0.000301646
5.29865e-05
0.000161468
0.000321332
2.51033e-05
0.000108475
0.000294753
1.86065e-05
0.000127239
0.00026842
-6.41137e-06
0.000188626
0.000290337
0.000204847
0.000260363
-2.39576e-05
0.000153268
0.000248691
0.000169989
-0.0001861
0.00012399
0.000169946
0.000233411
7.59761e-05
0.00021114
0.000215621
1.43776e-05
0.00024745
0.000202355
-2.84738e-05
0.000211307
0.000200117
-3.70999e-05
0.000146476
0.000168477
-2.06861e-05
0.000124695
0.000146227
-8.83257e-06
0.000186438
0.000201501
-4.02248e-05
0.000277592
0.000295902
0.000290683
0.000280237
-5.46247e-05
0.000118096
0.000281652
0.00020122
-0.000205145
2.58886e-05
0.00017969
0.000236489
-5.82651e-05
0.000209218
0.000175825
-0.000118377
0.000228689
0.000106228
-0.000136363
0.000187767
4.93046e-05
-0.00012279
0.00013939
1.56297e-05
-0.00010183
0.000146311
5.70274e-05
-9.43349e-05
0.000231271
0.000186419
-0.000116791
0.000319676
0.000319354
0.000321147
0.000304365
-0.000102506
0.000111581
0.000329152
0.000222307
-0.000219207
-2.40145e-05
0.000237601
0.000221565
-0.000131801
0.000235664
0.000126244
-0.000195317
0.000219929
2.92342e-05
-0.00021728
0.000173183
-2.90779e-05
-0.000218734
0.000140043
-1.76525e-05
-0.000218536
0.000164126
8.41042e-05
-0.000219374
0.00024399
0.000242025
-0.000210176
0.000305623
0.000344538
0.000290772
0.000316519
-0.000151137
0.000118243
0.000361871
0.000232436
-0.000211387
-2.9546e-05
0.00030085
0.000220049
-0.000158431
0.000259631
0.000132386
-0.000247986
0.000208494
5.34214e-05
-0.00030277
0.000153401
3.36329e-05
-0.000338771
0.000126194
9.38592e-05
-0.000363718
0.000147701
0.000218634
-0.000358774
0.000197974
0.000337983
-0.000296783
0.000222896
0.000375772
0.000204348
0.000322476
-0.000192663
0.00011757
0.000357076
0.000231663
-0.00017737
-1.70939e-05
0.000331115
0.000233188
-0.00016115
0.000259407
0.000194717
-0.000288211
0.000178147
0.000172919
-0.000388868
0.000112493
0.000200252
-0.000464344
8.0804e-05
0.000280032
-0.000495403
8.32643e-05
0.000363564
-0.000455639
9.23862e-05
0.000407635
-0.000348743
8.6025e-05
0.000401479
8.22874e-05
0.000325492
-0.000223153
0.000115534
0.000314428
0.000216618
-0.000140659
1.46743e-05
0.000314944
0.000246625
-0.000125871
0.000241274
0.000255812
-0.000273085
0.000149551
0.000278144
-0.000400257
7.65387e-05
0.000324647
-0.000484332
2.95082e-05
0.000383073
-0.000497672
-4.58178e-06
0.000424042
-0.000438087
-3.57629e-05
0.000432897
-0.000341604
-5.19402e-05
0.000404063
-3.26948e-05
0.000319825
-0.000242541
0.000125572
0.000179528
0.000227679
-9.89259e-05
9.0976e-05
0.000223223
0.000245584
-4.88263e-07
0.000258856
0.000195881
-0.000118947
0.000293846
0.000124865
-0.000220888
0.000327529
5.55349e-05
-0.000278931
0.000360889
-7.06711e-06
-0.000291698
0.000378846
-6.73567e-05
-0.00027679
0.000376619
-0.000118655
-0.000256495
0.000352135
-0.000132507
0.000287151
-0.00022848
-0.000103319
9.01665e-05
0.000154694
5.38884e-05
-2.81552e-05
-0.000178994
0.000119908
0.000237825
0.000144466
-0.000222402
0.000135036
0.000303661
0.000227886
-0.000270608
0.000127097
0.000327453
0.000321654
-0.000292094
0.000102363
0.000290296
0.000387399
-0.000262873
8.81455e-05
0.00020871
0.000409842
-0.000206119
0.000111106
0.000118297
0.000390269
-0.000147156
0.0001582
6.32026e-05
0.000338395
-0.000103125
0.000197064
7.57392e-05
0.000283908
-9.47111e-05
0.00015119
0.000221194
0.000191641
-0.000123089
6.71735e-05
6.25513e-05
0.000190825
-2.81923e-05
6.07936e-05
0.000181954
0.000279312
4.35001e-05
0.000274232
0.000320094
3.09783e-05
0.000295994
0.000381512
2.52549e-05
0.000248504
0.000436718
4.97088e-05
0.000146831
0.000453258
0.000122559
4.13455e-05
0.000417573
0.000206789
7.89421e-07
0.000349078
0.000243685
5.73349e-05
0.000314563
0.000185422
0.000270415
0.000212147
-1.11382e-05
-1.43518e-05
0.000282422
-1.42587e-05
-4.49461e-05
0.000104322
0.000357787
-8.43781e-05
0.000211653
0.000363221
-0.000105768
0.000224988
0.000386856
-8.77797e-05
0.000156714
0.000416513
-2.53201e-05
4.45951e-05
0.000406037
7.36339e-05
-5.00765e-05
0.00032938
0.000179879
-6.54265e-05
0.000265546
0.000220645
5.18663e-05
0.000290378
0.00023059
0.00028277
0.000176299
-0.000123649
-2.11179e-05
0.00031932
2.70355e-05
-0.00018457
6.18054e-05
0.000373963
-0.000217309
0.00013671
0.000358718
-0.000219397
0.000118486
0.000347342
-0.000182144
3.35698e-05
0.000323275
-0.000120134
-6.47847e-05
0.000250074
-3.07177e-05
-0.000134714
0.000173093
7.23219e-05
-0.000116443
0.000183312
0.00011714
5.88962e-05
0.000280774
0.000273979
0.000296858
8.2241e-05
-0.000210367
4.03747e-05
0.000321668
7.06159e-05
-0.000284137
6.61639e-05
0.000340586
-0.000299965
6.40358e-05
0.000297957
-0.000282883
3.03941e-07
0.000240055
-0.000251156
-8.42068e-05
0.000164669
-0.000206626
-0.000158582
9.08413e-05
-0.000140986
-0.000194228
7.71448e-05
-6.63298e-05
-0.000137192
0.000163929
-2.53297e-05
6.69157e-05
0.000305865
0.00029126
0.000318053
-3.21769e-05
-0.000230556
0.000137188
0.000314996
7.95503e-05
-0.000312058
0.000100824
0.000300605
-0.000333692
1.65958e-05
0.000227109
-0.000332236
-8.39501e-05
0.000140614
-0.000324666
-0.000164809
6.86102e-05
-0.000298981
-0.000215003
3.58612e-05
-0.000254909
-0.000217708
8.84189e-05
-0.000209154
-0.000134118
0.000223077
-0.000170978
5.6683e-05
0.00034643
0.000263825
0.000330029
-0.000136238
-0.000202592
0.000235717
0.000314162
5.6646e-05
-0.000309463
0.000161663
0.000295873
-0.000371657
1.48722e-05
0.000226442
-0.000410319
-0.000116008
0.000151084
-0.000423543
-0.000203203
0.000108752
-0.000405788
-0.000242304
0.000126652
-0.000373577
-0.000226746
0.00022099
-0.00034541
-0.000139058
0.000341413
-0.000300745
1.7534e-05
0.000394706
0.000192687
0.000334873
-0.000223162
-0.00013716
0.000303184
0.000316294
1.47909e-05
-0.000268842
0.000226203
0.000326947
-0.000384355
5.10724e-05
0.000302232
-0.000469601
-0.000108855
0.000276529
-0.000511128
-0.000210268
0.00027191
-0.000513162
-0.000253585
0.000315918
-0.000501048
-0.000240027
0.000386282
-0.000472342
-0.000174684
0.000435332
-0.000401676
-6.15421e-05
0.000430275
8.39085e-05
0.00033661
-0.000286854
-2.4203e-05
0.000321925
0.000305418
-5.78056e-05
-0.000144697
0.000258076
0.000358284
-0.000286549
9.62829e-05
0.000377095
-0.000416013
-7.15376e-05
0.000392799
-0.000506554
-0.000187135
0.000411568
-0.000554276
-0.000247472
0.000442253
-0.000563245
-0.000260246
0.000470124
-0.000530774
-0.000230605
0.000472991
-0.000452289
-0.000155227
0.000435896
-3.75427e-05
0.000332114
-0.000328143
0.000131665
0.000253057
0.000286169
-0.000150533
7.11365e-05
0.000325257
0.000234336
-2.81911e-05
0.00036151
0.000113371
-0.000148278
0.000386298
-2.41285e-05
-0.000265576
0.000404919
-0.000129946
-0.000361089
0.000421889
-0.000197107
-0.00042407
0.000428635
-0.000232185
-0.000446518
0.000418806
-0.000236123
-0.000422667
0.000382384
-0.000195317
0.000297164
-0.000342273
-0.000116264
6.31543e-05
6.97091e-05
9.48124e-05
-2.20298e-05
-0.000105567
2.07327e-05
0.000190858
0.000188612
-0.000153819
-2.89344e-05
0.000253833
0.000258387
-0.000198417
-6.26937e-05
0.000266672
0.000333346
-0.000210471
-7.63981e-05
0.000227877
0.000392901
-0.000184975
-6.36108e-05
0.000132949
0.000425675
-0.000124083
-9.35156e-07
-1.60058e-05
0.000414751
-2.98812e-05
9.74318e-05
-0.000132841
0.000368409
4.1839e-05
0.000184702
-0.000146719
0.000328198
4.88929e-05
3.53516e-06
0.000271572
0.000217972
-6.05366e-05
5.42397e-05
9.58937e-06
0.000258637
-2.25416e-05
-5.14342e-06
0.000186248
0.000372135
-7.71416e-05
0.00026656
0.000407169
-0.000125378
0.000278565
0.00044595
-0.000143675
0.000226697
0.000486255
-0.000128009
0.000101705
0.000503072
-8.98344e-05
-6.70544e-05
0.00046563
-7.28215e-06
-0.000219519
0.000384028
8.76327e-05
-0.000248891
0.000349021
-4.53046e-05
0.000317067
0.000112157
-3.02027e-05
-3.07225e-05
0.000355169
3.4953e-05
-6.58868e-05
0.000145672
0.000461256
-0.000121757
0.000231533
0.000482711
-0.000163096
0.000239672
0.00049808
-0.000175664
0.000178248
0.000512646
-0.000173458
4.81347e-05
0.000495613
-0.000179093
-0.000125856
0.000427281
-0.000154998
-0.000291997
0.000341463
-8.72494e-05
-0.00032104
0.000319835
-0.000101298
0.000318351
-4.59654e-05
-0.000154941
-3.46947e-05
0.000387881
0.000124147
-0.000166161
8.04177e-05
0.000477825
-0.000171946
0.000126128
0.000500625
-0.000172162
0.000116259
0.000505342
-0.000172329
5.20744e-05
0.000486277
-0.000197517
-7.21768e-05
0.000428715
-0.000245296
-0.000230812
0.000353575
-0.000276989
-0.000351224
0.000298967
-0.000254476
-0.000337811
0.00029764
-0.000135901
0.000301352
-0.000205394