/*--------------------------------*- C++ -*----------------------------------*\
| =========                 |                                                 |
| \\      /  F ield         | OpenFOAM: The Open Source CFD Toolbox           |
|  \\    /   O peration     | Version:  2406                                  |
|   \\  /    A nd           | Website:  www.openfoam.com                      |
|    \\/     M anipulation  |                                                 |
\*---------------------------------------------------------------------------*/
FoamFile
{
    version     2.0;
    format      ascii;
    arch        "LSB;label=32;scalar=64";
    class       volScalarField;
    location    "0.2";
    object      turbulenceProperties:nuEff;
}
// * * * * * * * * * * * * * * * * * * * * * * * * * * * * * * * * * * * * * //

dimensions      [0 2 -1 0 0 0 0];

internalField   nonuniform List<scalar> 
25000
(
0.00524016
0.00542437
0.00559877
0.00572356
0.00573158
0.00562747
0.00551105
0.00544369
0.00542278
0.00546889
0.00540384
0.00565928
0.00578287
0.00581677
0.00578816
0.00567122
0.00553007
0.00543748
0.00539939
0.00547282
0.00559505
0.005867
0.00584289
0.0057984
0.0058326
0.00579586
0.00561619
0.00546882
0.00539958
0.00546745
0.00580819
0.00593979
0.00569627
0.00560188
0.00566497
0.00581339
0.00571241
0.00551219
0.00540668
0.00546288
0.00604051
0.00587034
0.00555911
0.00545933
0.00549388
0.00569999
0.00576454
0.00555417
0.0054188
0.00546528
0.00622728
0.00581318
0.00549488
0.00540039
0.0054195
0.00561888
0.00576701
0.00557544
0.00542811
0.00547297
0.00626374
0.00585752
0.00550193
0.00540575
0.0054419
0.00565094
0.0057618
0.00556428
0.0054276
0.00548254
0.00608904
0.00609622
0.00564601
0.00553344
0.00561286
0.00579512
0.00572293
0.00551967
0.00542022
0.00549895
0.00580627
0.00633902
0.00610599
0.00595393
0.00594958
0.00582302
0.00559998
0.00545738
0.00541565
0.00552705
0.00555664
0.00588253
0.00612194
0.00608173
0.00585888
0.00564294
0.00550277
0.00544178
0.00545082
0.00555253
0.00463226
0.00501276
0.00533582
0.0054975
0.00537765
0.00528724
0.00526832
0.00521192
0.00503571
0.00476483
0.00530672
0.0056163
0.00534648
0.00515902
0.00503273
0.00501634
0.00509588
0.00519845
0.0052428
0.00503305
0.0055599
0.00509841
0.00501043
0.00494997
0.00486522
0.00484294
0.00494749
0.00511832
0.00524267
0.00518128
0.00507777
0.00490003
0.00491785
0.00493329
0.00484565
0.00476671
0.00483494
0.00503661
0.00523093
0.00525826
0.00486908
0.0048222
0.00490517
0.00499027
0.00487928
0.00474188
0.00476624
0.00496216
0.00521705
0.0052991
0.00480144
0.00479226
0.00493338
0.00505107
0.00489029
0.00472101
0.00472666
0.00491607
0.00521131
0.00529955
0.00480083
0.00474605
0.00489007
0.00497585
0.00481528
0.00467718
0.00470271
0.00491076
0.0052308
0.0052301
0.00487281
0.00467347
0.00474089
0.00477518
0.00468135
0.00462518
0.00471423
0.00497117
0.00528
0.00506963
0.0051755
0.00471043
0.00465288
0.00464047
0.00461746
0.00466441
0.00484957
0.00514197
0.00527844
0.00482541
0.00532876
0.00526713
0.00494317
0.00484239
0.00486519
0.00501963
0.00523077
0.00518845
0.00488551
0.00453271
0.00466968
0.00496371
0.00536672
0.00535985
0.00502494
0.00498445
0.00515018
0.00512112
0.00482535
0.00446737
0.00512625
0.00541788
0.00527181
0.00504436
0.00473764
0.00463087
0.00474167
0.00504091
0.00531835
0.0048471
0.00534974
0.00518143
0.00494022
0.00495266
0.00473231
0.00455767
0.00457911
0.00478944
0.00520584
0.00510325
0.0051419
0.00488875
0.00475563
0.00490213
0.00479731
0.00456256
0.00453773
0.00467406
0.00505433
0.00527
0.00491081
0.00470163
0.00468624
0.00489593
0.00487552
0.00459631
0.0045214
0.00461667
0.00494982
0.00536862
0.00487215
0.00471585
0.004786
0.00507392
0.00494888
0.00462355
0.00451906
0.00458856
0.00489033
0.00537865
0.00492111
0.0048606
0.00508139
0.00548967
0.00492596
0.00459877
0.00451127
0.00456645
0.0048636
0.00528261
0.00479274
0.00484295
0.00503883
0.00504431
0.00472526
0.00451655
0.00446536
0.00454164
0.00487891
0.0050772
0.00459806
0.00457848
0.00461309
0.00456425
0.0044623
0.00439094
0.00441124
0.00457538
0.005034
0.00478955
0.00472509
0.00453445
0.00448097
0.00441413
0.00436633
0.00439206
0.00455049
0.00493697
0.00504592
0.00443317
0.00454465
0.00470136
0.00487547
0.00523319
0.00502767
0.00487944
0.0050569
0.00524818
0.00485905
0.00448644
0.0048319
0.00516849
0.00501042
0.00494572
0.00479567
0.00459752
0.00457406
0.00483705
0.00585879
0.0049495
0.00506467
0.00497439
0.00462303
0.00463964
0.00467281
0.00455424
0.00450358
0.00465737
0.00524266
0.00525334
0.00511905
0.00455638
0.00442445
0.00453867
0.0045991
0.00448145
0.00441303
0.00460713
0.00517456
0.00529358
0.00486103
0.00443867
0.00447035
0.00466607
0.00470306
0.00448619
0.00432943
0.0045295
0.00522123
0.00521704
0.00474371
0.00450274
0.00462553
0.0050218
0.0049513
0.00449941
0.0043104
0.00452594
0.00528508
0.00513079
0.00481832
0.00463873
0.00487162
0.00658048
0.00490078
0.0044432
0.00434117
0.00459389
0.00530322
0.00508829
0.00496779
0.00478118
0.00500005
0.00507881
0.00461955
0.00439604
0.0044001
0.00465717
0.00519885
0.00507205
0.00496057
0.00477201
0.00475724
0.00461558
0.00445013
0.00436769
0.0044486
0.00467404
0.00513954
0.00496339
0.00484667
0.00474568
0.0046958
0.0045677
0.0044527
0.00442588
0.00454227
0.0048472
0.0054631
0.00454923
0.004491
0.00480901
0.00498937
0.00496592
0.00498337
0.00530202
0.00510076
0.00484353
0.00486859
0.00440999
0.00463585
0.0048911
0.00467921
0.00461676
0.00468199
0.00483834
0.00484273
0.00461904
0.00488808
0.0048099
0.00478117
0.00453898
0.00441602
0.00441333
0.00441872
0.00448455
0.00453071
0.00445742
0.00466239
0.00512511
0.00503919
0.0045853
0.00451921
0.00450268
0.00445031
0.00444862
0.00440376
0.004326
0.00451731
0.00544169
0.00510598
0.00464564
0.0045995
0.00462957
0.00461938
0.00461532
0.00439824
0.00427646
0.00447009
0.00542779
0.00504804
0.00457622
0.00455565
0.0048228
0.00507033
0.00465529
0.00431164
0.00425502
0.00450403
0.00512379
0.00499665
0.0045053
0.00454464
0.00508164
0.00485927
0.00439133
0.00421989
0.00426895
0.00459586
0.00477456
0.00490198
0.00453869
0.00459935
0.00473394
0.00444566
0.00424167
0.00421677
0.00436076
0.00475008
0.00452061
0.00475039
0.00467749
0.00463197
0.00452573
0.00434107
0.00426899
0.00436434
0.00459718
0.00475545
0.00434388
0.00458912
0.00488547
0.00497454
0.00474272
0.00453565
0.00450658
0.00453026
0.0044432
0.00433102
0.00419096
0.00411271
0.0044553
0.00476273
0.00495064
0.00493197
0.0048221
0.00473533
0.00472442
0.00463442
0.0042853
0.004201
0.00467579
0.00471935
0.00463083
0.00465161
0.00474715
0.00490339
0.00515187
0.00524432
0.00456508
0.00429507
0.00490494
0.00498976
0.00463162
0.00449663
0.00446237
0.00448558
0.00467097
0.00487777
0.00475324
0.0043456
0.00485344
0.00494594
0.00461474
0.00439336
0.00433189
0.00444117
0.00453868
0.00480026
0.00494304
0.00446776
0.00491283
0.0045448
0.00445664
0.00444314
0.00457245
0.00453361
0.00443894
0.00479474
0.00511203
0.00471019
0.00465489
0.00437652
0.00459835
0.00523963
0.00474989
0.00433657
0.00439965
0.00485428
0.00496864
0.00495079
0.00452121
0.0043767
0.00466529
0.00458555
0.00426744
0.00423086
0.00446944
0.00481803
0.00470321
0.00513098
0.00457215
0.00441233
0.00441967
0.00427103
0.00421623
0.00436075
0.00460509
0.00474769
0.00447806
0.00489899
0.00477173
0.00452174
0.00440428
0.00435052
0.00444581
0.00465912
0.00476607
0.00467107
0.00430717
0.00437741
0.00455886
0.00454017
0.00447224
0.00445464
0.00447241
0.00442866
0.00435041
0.00430565
0.00419724
0.00370355
0.00394376
0.0042071
0.00447356
0.00475967
0.00474935
0.0045957
0.00451401
0.00441103
0.00419613
0.00378986
0.00425737
0.00468039
0.00480322
0.00487551
0.00491713
0.00479428
0.00474955
0.00492968
0.00435527
0.00393056
0.00461372
0.00489111
0.00466696
0.00447613
0.00430336
0.00421426
0.00444835
0.00531542
0.00442559
0.00413229
0.00483154
0.00458373
0.00441721
0.00419769
0.00408513
0.00422131
0.00441698
0.00480799
0.00443275
0.00442836
0.00463042
0.00442135
0.00429793
0.00421428
0.00438498
0.00458531
0.00421536
0.00457174
0.00441774
0.00467313
0.00455024
0.00442691
0.00445244
0.00472054
0.00484356
0.00423317
0.0041128
0.00481259
0.00436528
0.00472292
0.00456206
0.00439828
0.00438604
0.00433864
0.00413288
0.00403454
0.00424597
0.00538208
0.00426961
0.00458685
0.00463202
0.00443218
0.00429366
0.00419473
0.00413907
0.00426123
0.00474059
0.00496612
0.00419844
0.00433989
0.00464481
0.0045777
0.00458917
0.00465443
0.00479504
0.0051266
0.00530625
0.00469678
0.00416552
0.00408872
0.00420552
0.00426486
0.0043378
0.00435686
0.00433589
0.00432942
0.00437039
0.00437903
0.00416645
0.00354729
0.00373486
0.00391845
0.00405906
0.00414851
0.00419102
0.00420419
0.0041932
0.00407703
0.00383788
0.00374712
0.00417216
0.00442588
0.00461874
0.00478175
0.00490318
0.00447103
0.00440425
0.00459047
0.00418523
0.00394966
0.00469301
0.00479286
0.00490202
0.00473216
0.00431005
0.00412038
0.00427056
0.00446706
0.00449928
0.00409652
0.00487254
0.00468804
0.00448694
0.00421979
0.00404599
0.00413799
0.0044256
0.00456258
0.00476525
0.0042286
0.00468544
0.00435009
0.0041588
0.00407284
0.00413702
0.00445142
0.00453196
0.00459128
0.00500022
0.00439301
0.00457486
0.00426569
0.00419654
0.00426693
0.00454902
0.00457802
0.00432407
0.00458429
0.00481353
0.00447464
0.00447893
0.00431715
0.00434614
0.0044548
0.00440189
0.00421643
0.00425761
0.00475171
0.00450383
0.00434299
0.004451
0.00434835
0.00431909
0.00427937
0.00421268
0.00423126
0.00445522
0.00500014
0.00427773
0.00409551
0.00457458
0.00458132
0.00462728
0.00455558
0.00456134
0.00475953
0.00530576
0.00485094
0.00411073
0.00379399
0.00413709
0.00429766
0.00443423
0.00458376
0.0046835
0.00460275
0.00442042
0.00418679
0.00395687
0.00350111
0.00365955
0.00381953
0.00395151
0.00402689
0.0040693
0.00409063
0.004221
0.00432683
0.00404906
0.00366847
0.00413076
0.00444182
0.00467927
0.00487806
0.00499914
0.00454223
0.00438199
0.00458922
0.00437942
0.00385449
0.00460759
0.00495225
0.00510075
0.00529958
0.00530795
0.00453071
0.00428867
0.00453667
0.0045446
0.00397626
0.00467272
0.00489222
0.00507859
0.00520131
0.00472141
0.00436988
0.00435194
0.00451286
0.00454534
0.00403985
0.00451567
0.00452425
0.00466665
0.00455777
0.00421112
0.00427624
0.00467358
0.00480516
0.00437021
0.00411919
0.00452999
0.00436778
0.00438847
0.00425749
0.00429975
0.00478824
0.00478939
0.00502633
0.00417869
0.00419367
0.00461549
0.00447581
0.00437752
0.00448786
0.00478415
0.00447759
0.00470969
0.00475264
0.00400118
0.0042248
0.00464732
0.00462447
0.00470168
0.00491543
0.00471749
0.00476032
0.00510317
0.00441421
0.00387583
0.00412969
0.0046896
0.00476564
0.00492181
0.00526569
0.00512832
0.00498972
0.00455494
0.00410131
0.00373969
0.00387749
0.00418153
0.00436739
0.00452571
0.00459693
0.00436034
0.00410285
0.00390395
0.00372954
0.00362192
0.00348263
0.0036708
0.00389828
0.00411403
0.00425575
0.00426576
0.00419979
0.00412224
0.00411221
0.00397597
0.00364105
0.00416645
0.00454123
0.00483797
0.00579127
0.00489639
0.00463224
0.00457613
0.00439991
0.00415225
0.00378419
0.00456185
0.00491298
0.00470449
0.00492803
0.00477616
0.00446288
0.00444607
0.00450586
0.00416342
0.00387052
0.00466145
0.00537576
0.00459653
0.00445233
0.00452325
0.00434683
0.00428925
0.00442538
0.00425729
0.00391702
0.00457225
0.00517285
0.00449613
0.00423274
0.00443709
0.00452619
0.0043832
0.00446093
0.0043143
0.00394778
0.00453888
0.00494702
0.00443857
0.00423426
0.00464781
0.00532792
0.00473252
0.0048729
0.00431802
0.00396232
0.00456255
0.00488238
0.00446449
0.00434728
0.00489538
0.00440636
0.00421469
0.00436488
0.00398439
0.00396456
0.00460904
0.00483202
0.00446528
0.00440224
0.0047566
0.00429225
0.00435184
0.00466495
0.00382288
0.00393684
0.00459218
0.00497332
0.00469021
0.00445513
0.00529783
0.00454993
0.00464926
0.0040538
0.00365049
0.0038063
0.00405949
0.00418289
0.00428272
0.00429712
0.00424085
0.00401296
0.00384886
0.00364978
0.00353538
0.00352238
0.00375303
0.00400515
0.00424326
0.00440346
0.00436053
0.00423208
0.00410522
0.00399204
0.00379592
0.0036679
0.00423103
0.00469214
0.00523438
0.00479388
0.00440805
0.00431642
0.00451026
0.00485698
0.00411269
0.003762
0.00458238
0.00466378
0.00450181
0.00435422
0.00417519
0.00407691
0.00409267
0.00429241
0.00431918
0.00380687
0.00491303
0.00450574
0.00410245
0.00413034
0.00427192
0.00410958
0.00406412
0.00410371
0.00426325
0.00384338
0.00518809
0.00439657
0.00399655
0.00411909
0.00496936
0.0047432
0.00452225
0.00436396
0.00428934
0.00388174
0.00532585
0.00431247
0.0040534
0.00433163
0.00481084
0.00451795
0.00449253
0.00477425
0.00435191
0.00390276
0.00524206
0.00425815
0.00412101
0.00464689
0.00466725
0.00427032
0.00417089
0.00413745
0.00392867
0.00388034
0.00511953
0.00423646
0.00412224
0.00470619
0.00451432
0.0040948
0.00423374
0.00443254
0.00378315
0.00379425
0.00480502
0.0043582
0.00412141
0.00459949
0.00447703
0.00405573
0.00429715
0.0039758
0.00366886
0.00361995
0.00390421
0.00411089
0.00408791
0.00417192
0.00411097
0.00387356
0.00382104
0.00364394
0.00363604
0.0035924
0.00377359
0.00390727
0.0040459
0.0041911
0.00424747
0.00419798
0.00410533
0.00396365
0.0037262
0.00370076
0.0040878
0.00447018
0.00539908
0.00463396
0.00451094
0.00457518
0.00455286
0.00469691
0.00412878
0.00378418
0.00451223
0.00471933
0.00421959
0.00394467
0.00389517
0.00401125
0.00410392
0.00413381
0.00427403
0.00383725
0.00559385
0.00413123
0.0038481
0.00394838
0.00404725
0.004068
0.00419995
0.0041959
0.00426421
0.00390327
0.00489511
0.00398546
0.00388889
0.00437002
0.00439645
0.00428041
0.00452446
0.00493335
0.00450008
0.00397087
0.00453935
0.00402649
0.00419077
0.00436842
0.00398403
0.00401233
0.00406146
0.00412359
0.00428697
0.00402942
0.00445815
0.00413383
0.00467759
0.00431951
0.0040563
0.00412107
0.00420176
0.00395937
0.00382052
0.00404263
0.00440032
0.00417515
0.00493475
0.00423002
0.003985
0.00420345
0.00472291
0.00421602
0.00373507
0.00396037
0.00441777
0.00414706
0.00476573
0.00427339
0.00394248
0.00405598
0.00409342
0.00390936
0.00371719
0.00370743
0.00407775
0.00413141
0.00425902
0.00407362
0.00381244
0.00385073
0.00383264
0.00376625
0.00378783
0.00392077
0.0038936
0.00379522
0.0038315
0.00401249
0.00415258
0.00416841
0.00419205
0.00414873
0.00394136
0.00391996
0.00395274
0.00406139
0.00485525
0.00425059
0.00409784
0.00434602
0.00450456
0.00448775
0.00431598
0.00394069
0.00419495
0.00479102
0.00397439
0.00377154
0.00375239
0.00387604
0.00414369
0.00424845
0.00428467
0.00393717
0.00499142
0.00404539
0.00374423
0.00397379
0.00416012
0.00401852
0.00421959
0.00446219
0.00439427
0.00405106
0.00462922
0.00389853
0.00391968
0.00433877
0.00402048
0.00390368
0.00405795
0.00414602
0.00425494
0.00413712
0.00432879
0.00412854
0.00430294
0.00386926
0.00376487
0.00387564
0.00405261
0.00392282
0.00385482
0.00414199
0.00445052
0.00487372
0.00423838
0.00391325
0.00399187
0.00427644
0.00460348
0.00405656
0.00372633
0.00424006
0.00463581
0.00504953
0.00412403
0.0041004
0.00432423
0.00443437
0.00431309
0.00411907
0.00378212
0.00438657
0.00472321
0.00481482
0.00406579
0.00402015
0.00411188
0.0040517
0.00400006
0.00395236
0.003833
0.004188
0.00443428
0.00439065
0.00386216
0.00375638
0.00386022
0.00391141
0.00398374
0.00402929
0.00406857
0.00414004
0.00388636
0.0036391
0.00388722
0.0043741
0.00439167
0.00424853
0.00386256
0.00377216
0.00379169
0.00418627
0.00393209
0.00400957
0.0045486
0.00400067
0.0038942
0.00394817
0.00441095
0.00419359
0.00393669
0.00407243
0.00409658
0.00454322
0.00380493
0.00385026
0.00392295
0.00382708
0.00398702
0.00434877
0.00407329
0.00399598
0.00458727
0.00397445
0.00369875
0.00406358
0.00434088
0.00390886
0.00391853
0.0042012
0.00404661
0.00412874
0.00457045
0.00381526
0.00383927
0.00422626
0.00411369
0.00388503
0.00393776
0.0041641
0.00396411
0.00416728
0.00422438
0.0040137
0.00403179
0.00392704
0.00386652
0.00391953
0.0041404
0.00421376
0.003906
0.00411925
0.00446969
0.00433529
0.00399473
0.00389212
0.00398884
0.00425187
0.00475011
0.00424638
0.00390345
0.00412583
0.00459067
0.00417205
0.00412018
0.0042619
0.00445092
0.00478664
0.0046168
0.00420158
0.00398713
0.00407256
0.00424579
0.00410065
0.00429644
0.00434655
0.00422321
0.00426376
0.00424688
0.00415648
0.0041089
0.00401814
0.00393974
0.00379917
0.00381687
0.0039004
0.00403269
0.00415692
0.00418355
0.00417797
0.00421749
0.00413276
0.00382854
0.0036613
0.0040769
0.0044005
0.00477185
0.00436028
0.00397592
0.00362886
0.00348359
0.00419961
0.00391292
0.00406071
0.00433633
0.00400354
0.00416935
0.00403015
0.00417474
0.00430417
0.00367253
0.00400168
0.00407599
0.00455403
0.00385528
0.00383458
0.00415151
0.00394364
0.00397397
0.00455188
0.00381769
0.00399596
0.00446946
0.004057
0.00365373
0.0038693
0.00423737
0.00396047
0.00395156
0.00449046
0.00389696
0.00410219
0.00439022
0.0037064
0.00369675
0.00407957
0.0042618
0.00399236
0.00396782
0.00439076
0.00395283
0.00415391
0.00396418
0.00377115
0.00395821
0.00407094
0.00410578
0.00403485
0.00404917
0.00432515
0.00400155
0.00414054
0.0041143
0.00405601
0.00399275
0.00399832
0.00407688
0.00417366
0.00422874
0.00433202
0.00404599
0.00403722
0.00437993
0.00417624
0.0041812
0.00429424
0.00446534
0.00461342
0.00444138
0.00433951
0.0041115
0.00379963
0.00429172
0.00448306
0.00467272
0.00453369
0.00451553
0.0044861
0.00431952
0.0042237
0.00415418
0.00359408
0.00382308
0.00395126
0.00403574
0.00415569
0.00421251
0.00418261
0.00412625
0.00404436
0.00409285
0.00432112
0.00391904
0.00373057
0.00375969
0.00389587
0.00404547
0.00406154
0.0038777
0.00362673
0.00355835
0.00408003
0.00401331
0.00402314
0.0044582
0.00454978
0.00456507
0.00468511
0.00498805
0.00408084
0.00367503
0.0038755
0.00411818
0.00459284
0.00445034
0.00422256
0.00428179
0.00443615
0.00482324
0.00441252
0.00380422
0.0038074
0.00425908
0.00471982
0.0041535
0.00412266
0.00418714
0.00431401
0.0045544
0.00470552
0.00393447
0.00380505
0.00450523
0.00420063
0.00402439
0.0040572
0.00416856
0.0042456
0.0043424
0.00486102
0.00405168
0.00386633
0.00427396
0.00400512
0.00402388
0.0041202
0.00433123
0.00427996
0.00424932
0.00477374
0.00416434
0.00392718
0.00416479
0.00416165
0.00426493
0.00427014
0.00432296
0.00445467
0.00433601
0.00464772
0.00429492
0.00396148
0.00468539
0.00466978
0.00461594
0.0044483
0.00436799
0.00460964
0.0046296
0.00440415
0.00421418
0.00378924
0.00475768
0.00508672
0.00500841
0.00469342
0.00442076
0.00440288
0.00447103
0.00409659
0.00390996
0.00362361
0.00391917
0.00408937
0.00419057
0.00421693
0.00418722
0.00411667
0.00402834
0.0038237
0.00371653
0.00452268
0.00404073
0.0037826
0.00367577
0.0036611
0.0036694
0.00371081
0.00378273
0.00363636
0.00340174
0.00399972
0.00418082
0.00399148
0.00388193
0.00390879
0.00402035
0.00420567
0.00444786
0.00421356
0.0036459
0.00379243
0.00397064
0.00432721
0.00440131
0.00437877
0.004578
0.00467813
0.00475305
0.00462154
0.00382533
0.00375987
0.00388582
0.00436063
0.00472172
0.0045271
0.00460785
0.00452842
0.00457752
0.00488001
0.00394768
0.00374403
0.00397879
0.00461094
0.00456985
0.00448905
0.00449157
0.00438612
0.0044412
0.00487782
0.00400334
0.00370278
0.00416937
0.00474433
0.00452452
0.00443486
0.00439731
0.00436983
0.00440001
0.00468594
0.00392822
0.00374106
0.00453106
0.00453394
0.00446683
0.00437881
0.00446828
0.00451847
0.00442507
0.00420251
0.00376057
0.00372481
0.0044851
0.00468833
0.00452025
0.00446874
0.00443671
0.0045361
0.0043473
0.00392546
0.00367878
0.00357022
0.0040401
0.00451406
0.00483376
0.0048218
0.00446563
0.00426352
0.00404339
0.00377856
0.00366566
0.00350199
0.00368072
0.00391846
0.00409581
0.00416585
0.00415358
0.00400444
0.00380513
0.00367595
0.0036959
0.00382229
0.00389099
0.00385331
0.00382087
0.00381814
0.0037669
0.00370784
0.00368938
0.00369895
0.00368698
0.00388979
0.00414133
0.00411433
0.00396406
0.00391295
0.00388024
0.00383591
0.00385805
0.00393322
0.00377753
0.00388143
0.00404297
0.00450877
0.00452086
0.00440978
0.00449506
0.00455223
0.0045637
0.00453414
0.00397766
0.00390467
0.00394168
0.00434557
0.00431292
0.00424379
0.00445235
0.00474232
0.0050372
0.00503793
0.00410796
0.00390874
0.00396774
0.00440703
0.00424566
0.00439302
0.00479533
0.00498906
0.00513355
0.00500317
0.00413556
0.00380734
0.0039457
0.00478407
0.00458043
0.00472359
0.00447715
0.00456328
0.00467187
0.00463354
0.00403795
0.00371051
0.00392539
0.00512158
0.00494268
0.00456823
0.00460002
0.0046976
0.00457754
0.00432297
0.0039125
0.00363833
0.003963
0.00500521
0.00488515
0.00473446
0.00486842
0.00453898
0.00425575
0.00399912
0.00376116
0.00358362
0.00395021
0.0048265
0.00494291
0.00492895
0.00489172
0.00435995
0.00401381
0.00376097
0.00362616
0.00352315
0.0036843
0.00408521
0.00438146
0.00431191
0.00413546
0.00399633
0.00378503
0.00361208
0.00364207
0.00350472
0.00357778
0.00370562
0.00380225
0.0038463
0.00383566
0.00381003
0.00377388
0.00376296
0.00379085
0.00360917
0.00389513
0.00414095
0.00419319
0.00418483
0.0041112
0.00400239
0.00390194
0.00383098
0.00370965
0.00379118
0.00435277
0.00516558
0.00465783
0.00465137
0.00471889
0.00450057
0.00423215
0.00407427
0.00382921
0.00394953
0.00443183
0.00462517
0.00449438
0.00467829
0.00495923
0.00494683
0.00455454
0.00427381
0.00391413
0.00404136
0.0044079
0.00462427
0.00469814
0.00471417
0.00465979
0.00475169
0.00468495
0.00437859
0.00393285
0.00405528
0.00431456
0.0047658
0.00492362
0.00457249
0.00453424
0.00465088
0.00468142
0.00441824
0.0039361
0.00402508
0.00417791
0.0046744
0.00469085
0.00449532
0.00489431
0.00489027
0.00459364
0.0042814
0.00391049
0.00384833
0.00400556
0.00456491
0.00466049
0.00439597
0.00476957
0.00481183
0.00439548
0.00406449
0.00378539
0.00363721
0.00378921
0.00444267
0.0049464
0.00447896
0.00444926
0.00436414
0.00407751
0.00375329
0.00357137
0.00357062
0.00353418
0.00392741
0.00445028
0.00428024
0.00404372
0.00392451
0.00376071
0.00357123
0.00359695
0.00353008
0.00362937
0.00372483
0.0038331
0.0038963
0.00392488
0.00390937
0.00386919
0.00381422
0.00372415
0.00367722
0.0039739
0.0041956
0.00430614
0.00433309
0.00437137
0.00435815
0.00428102
0.00417119
0.00392585
0.0038628
0.0044875
0.00500631
0.00477365
0.00464574
0.00458028
0.00444299
0.00433857
0.00433097
0.00405783
0.0040047
0.00474658
0.0051628
0.00487496
0.00468111
0.00453103
0.00434994
0.00429952
0.00451179
0.00422602
0.0040632
0.00468231
0.00489211
0.00475898
0.0045839
0.00444852
0.0043336
0.00436939
0.00469873
0.0044476
0.00405316
0.00458121
0.00476077
0.00474193
0.00459231
0.00449069
0.00443684
0.0045033
0.00465338
0.00444029
0.00397972
0.00450715
0.00468837
0.00467656
0.00469163
0.00456038
0.0044547
0.00445804
0.00464174
0.00419065
0.0038448
0.00437016
0.00459246
0.00449466
0.0046302
0.0047323
0.00461283
0.00464912
0.00445431
0.00384972
0.0036856
0.00406109
0.00447277
0.00450685
0.00449587
0.00486034
0.00477342
0.00438511
0.00385548
0.00362448
0.00358948
0.00370879
0.00400718
0.00423282
0.00422235
0.00412359
0.00396116
0.00382577
0.00366759
0.00374599
0.00363109
0.00370563
0.00371281
0.00371243
0.0039067
0.00417807
0.00407313
0.00407369
0.00419053
0.00392107
0.00362414
0.00379686
0.00389489
0.00402727
0.00432123
0.00442986
0.00435913
0.00432891
0.00466512
0.00424403
0.00368923
0.00409481
0.00435619
0.00437371
0.00443421
0.00444504
0.00428679
0.00428959
0.00488496
0.00441155
0.00384259
0.00440802
0.0045177
0.00451338
0.00445075
0.00434568
0.00417381
0.00426165
0.00459606
0.00454581
0.00404825
0.00456157
0.0047367
0.00468
0.00443384
0.00422785
0.00411899
0.00429742
0.00433869
0.00448395
0.00410565
0.00448314
0.00468084
0.00460951
0.00433646
0.00416925
0.00415864
0.0043652
0.00417819
0.00439989
0.00412321
0.00440282
0.0043999
0.00439252
0.0043069
0.00425588
0.0042942
0.00423715
0.0041153
0.00463725
0.00415277
0.00455962
0.00454781
0.00451411
0.00447402
0.00429926
0.00420421
0.00414328
0.00432226
0.00451857
0.0040295
0.00455443
0.00485825
0.0049228
0.00464901
0.00432679
0.00430246
0.00453451
0.00451316
0.00404448
0.00372901
0.00407537
0.00435268
0.00440613
0.00450465
0.0043788
0.00416424
0.00405769
0.00395566
0.00401339
0.00392958
0.00382172
0.00386351
0.00388233
0.00381579
0.00409984
0.00421443
0.00403886
0.00450272
0.00407627
0.00370452
0.0037391
0.00381905
0.00386103
0.00409501
0.00460861
0.00425927
0.00436548
0.00427258
0.00401372
0.00367698
0.00379515
0.00412554
0.00434752
0.00453918
0.00431197
0.0042196
0.00441058
0.00400411
0.0039914
0.00365193
0.00387228
0.00426094
0.00423231
0.00415428
0.00414684
0.00420394
0.00432226
0.00388219
0.00386233
0.00368393
0.00403165
0.00417834
0.00402366
0.00403375
0.00415733
0.00428238
0.00433283
0.00382032
0.00374777
0.00392596
0.00435884
0.00421357
0.0039967
0.00395985
0.00408451
0.00434358
0.00439739
0.00378445
0.00373187
0.00400723
0.00434807
0.00430934
0.00411518
0.00395685
0.00400655
0.00430476
0.00421431
0.00375788
0.00383841
0.00401524
0.00445488
0.00448423
0.00429994
0.00402452
0.00397097
0.00417153
0.00403698
0.003841
0.00408395
0.00427904
0.00462578
0.00456906
0.0043732
0.00406744
0.0039546
0.00407828
0.00418587
0.00421829
0.00429012
0.00397012
0.00461026
0.00472
0.0044935
0.00422371
0.00408312
0.00412036
0.0041871
0.0041744
0.00410887
0.00422635
0.00405211
0.00395359
0.00397179
0.00406752
0.00414464
0.0042668
0.00406108
0.00395171
0.00397128
0.00401889
0.00386112
0.00403493
0.00404875
0.00417861
0.00473654
0.00452354
0.00415615
0.00383446
0.00393041
0.00397939
0.0037666
0.00389453
0.00412949
0.00433075
0.00433729
0.00418428
0.00398389
0.00372534
0.00395374
0.00396539
0.00382377
0.00392281
0.00400854
0.00407241
0.004101
0.00407563
0.00390561
0.00367365
0.00392135
0.00379805
0.00383404
0.00403162
0.00422773
0.00447355
0.00443413
0.00416761
0.00389272
0.00363853
0.00379895
0.00371624
0.00381151
0.00392593
0.0040069
0.00422097
0.00469365
0.00442926
0.00386847
0.00362176
0.00379848
0.00386546
0.00395864
0.00394607
0.00392242
0.00397503
0.00423989
0.00432935
0.00378768
0.00364854
0.00394961
0.00393655
0.00402771
0.00399704
0.00399378
0.00393793
0.00409525
0.00410385
0.00377423
0.00378366
0.0041764
0.00400098
0.00402529
0.00402538
0.00413996
0.00402825
0.00410711
0.00414487
0.00396779
0.00406647
0.00403829
0.00421487
0.00416267
0.00420011
0.00407754
0.00405243
0.00426818
0.00455566
0.00419494
0.00402762
0.00399252
0.00402714
0.00400219
0.00412386
0.00408217
0.00399209
0.00402042
0.00425425
0.00418635
0.00374571
0.00379518
0.00387713
0.00378253
0.00384165
0.00406548
0.0044453
0.00434333
0.00426538
0.00409977
0.00367871
0.00386168
0.00388927
0.00380804
0.00378484
0.0038542
0.00414633
0.00464612
0.00438424
0.0038853
0.00369244
0.00423399
0.00410545
0.00402758
0.00395817
0.0038645
0.00396265
0.0042835
0.00415012
0.00380746
0.0038402
0.00470555
0.00415614
0.00411779
0.00413154
0.00398575
0.00392544
0.00408221
0.00399546
0.00380154
0.0039452
0.00492761
0.00384844
0.00404937
0.0042569
0.00421371
0.00406117
0.00407169
0.00393903
0.00378028
0.00397398
0.00556573
0.00369554
0.00406623
0.00425122
0.00421075
0.00416447
0.00411249
0.00391514
0.00378648
0.00408816
0.00462045
0.00362821
0.00392571
0.00407238
0.00402167
0.00414742
0.00413761
0.00393112
0.00388168
0.00427316
0.00403953
0.00361769
0.00368419
0.00393697
0.00390262
0.00409442
0.00435537
0.004157
0.00405643
0.00393603
0.00382731
0.00381529
0.00366187
0.00398495
0.00393628
0.00382978
0.0040614
0.00410822
0.00389252
0.00378615
0.00394813
0.00409873
0.00411293
0.00438377
0.00464725
0.00403596
0.00378144
0.00401824
0.0042809
0.00381925
0.00373888
0.00412952
0.00413877
0.00421268
0.00441609
0.00494721
0.00417746
0.00395007
0.00386127
0.003654
0.00391649
0.00417695
0.00406565
0.00421015
0.00442192
0.00467916
0.00466972
0.00412558
0.00382728
0.00383315
0.00478946
0.00395609
0.00390938
0.00416307
0.00453005
0.00439124
0.00435867
0.00415504
0.00393276
0.0041947
0.00436387
0.0037467
0.00378497
0.00401847
0.00421841
0.00418849
0.00416679
0.00406726
0.00409176
0.00445333
0.00417805
0.0036294
0.00360668
0.00385575
0.00407783
0.00408629
0.00407012
0.00407543
0.00429516
0.00463749
0.00413892
0.00370441
0.00355602
0.0036223
0.00391244
0.0039905
0.00402816
0.00410478
0.0044238
0.00459748
0.00407553
0.00397889
0.0037453
0.0035677
0.00366991
0.00386368
0.0039617
0.0040701
0.00434729
0.00413236
0.00391375
0.00368163
0.00396838
0.00382864
0.00360024
0.003684
0.00383946
0.0039292
0.00392113
0.00378131
0.00382864
0.00345401
0.00363429
0.00398608
0.00398974
0.00369163
0.00371557
0.0037925
0.00372903
0.00372685
0.00401847
0.00441875
0.00441172
0.00433255
0.00436987
0.00413641
0.00391091
0.00392572
0.00378641
0.00368416
0.00355196
0.00413677
0.00412417
0.00419997
0.00434655
0.00459579
0.00419747
0.00384834
0.00376764
0.0038291
0.0037926
0.0040306
0.00414632
0.0043973
0.00431963
0.00416046
0.00398392
0.00389136
0.00398169
0.0042708
0.00430505
0.00405029
0.00424818
0.00476414
0.00446846
0.00394443
0.00381846
0.00400015
0.00445394
0.0049674
0.00422327
0.00396083
0.00425617
0.00465653
0.00423829
0.00381049
0.00386689
0.00439349
0.00464837
0.00458265
0.00412997
0.00378042
0.00423749
0.00442994
0.00408653
0.00384182
0.00409943
0.00463263
0.0045967
0.00457099
0.00410277
0.00353917
0.00404888
0.00428698
0.00405042
0.00396459
0.00440177
0.00451818
0.00461244
0.00444418
0.00402646
0.003233
0.00361128
0.00395572
0.00408903
0.00414231
0.00438557
0.00417559
0.00426203
0.00409322
0.00394595
0.00327572
0.00339056
0.00358231
0.00379104
0.00395891
0.00390776
0.00386003
0.00386841
0.00382501
0.00393492
0.0036546
0.00359628
0.00357836
0.00361485
0.00366747
0.00368886
0.00381166
0.00382259
0.00385987
0.00413401
0.00416667
0.00454931
0.00446198
0.00420356
0.00417034
0.00431794
0.00405478
0.0036777
0.00361893
0.00342328
0.00419073
0.00456809
0.00458561
0.00438252
0.00439123
0.00411715
0.0037647
0.00367158
0.00387953
0.00378137
0.00409404
0.00468735
0.0050483
0.00485339
0.00448812
0.00397408
0.00375081
0.00380738
0.00418829
0.00425256
0.00406917
0.00459956
0.00473622
0.00492837
0.0044597
0.00387654
0.00370165
0.0038859
0.00458683
0.00445429
0.00393596
0.00440633
0.0046421
0.00462037
0.00433881
0.00374339
0.0036484
0.00405452
0.00471759
0.0042668
0.00369526
0.00447653
0.00438834
0.00440648
0.00412618
0.00361493
0.0036728
0.0043477
0.00463692
0.00423071
0.00354847
0.00461483
0.00418156
0.00443013
0.00389384
0.00355439
0.00380745
0.00453246
0.00444262
0.00413593