/*--------------------------------*- C++ -*----------------------------------*\
| =========                 |                                                 |
| \\      /  F ield         | OpenFOAM: The Open Source CFD Toolbox           |
|  \\    /   O peration     | Version:  2406                                  |
|   \\  /    A nd           | Website:  www.openfoam.com                      |
|    \\/     M anipulation  |                                                 |
\*---------------------------------------------------------------------------*/
FoamFile
{
    version     2.0;
    format      ascii;
    arch        "LSB;label=32;scalar=64";
    class       volScalarField;
    location    "0.2";
    object      turbulenceProperties:nut;
}
// * * * * * * * * * * * * * * * * * * * * * * * * * * * * * * * * * * * * * //

dimensions      [0 2 -1 0 0 0 0];

internalField   uniform 0;

boundaryField
{
    walls
    {
        type            nutUSpaldingWallFunction;
        value           nonuniform List<scalar> 
2000
(
5.76124e-09
8.49038e-09
1.13175e-08
1.36622e-08
1.50657e-08
1.51921e-08
1.40038e-08
1.17275e-08
8.84707e-09
6.03711e-09
1.73593e-08
2.87207e-08
4.07009e-08
4.98705e-08
5.42695e-08
5.26292e-08
4.47012e-08
3.21784e-08
1.91871e-08
9.96218e-09
3.55887e-08
6.36375e-08
9.30528e-08
1.13804e-07
1.20127e-07
1.09436e-07
8.42569e-08
5.39099e-08
2.94462e-08
1.56762e-08
5.44512e-08
9.66354e-08
1.43074e-07
1.76303e-07
1.85015e-07
1.68266e-07
1.34533e-07
9.66288e-08
6.3528e-08
3.87565e-08
6.9159e-08
1.14284e-07
1.71347e-07
2.21421e-07
2.43775e-07
2.33003e-07
1.98168e-07
1.53644e-07
1.08474e-07
6.763e-08
9.58078e-08
1.44098e-07
1.99175e-07
2.53118e-07
2.87705e-07
2.89802e-07
2.58303e-07
2.0453e-07
1.4591e-07
9.55482e-08
1.1198e-07
1.8645e-07
2.63438e-07
3.22637e-07
3.50413e-07
3.40422e-07
2.9808e-07
2.3516e-07
1.69369e-07
1.1493e-07
1.61729e-07
2.76096e-07
3.8317e-07
4.50809e-07
4.72966e-07
4.48096e-07
3.82703e-07
2.92307e-07
1.99204e-07
1.22997e-07
2.12335e-07
3.53539e-07
4.95411e-07
6.05217e-07
6.37032e-07
5.77241e-07
4.58524e-07
3.25173e-07
1.99395e-07
9.87295e-08
2.60165e-07
4.39674e-07
6.1917e-07
7.37279e-07
7.51433e-07
6.76424e-07
5.44872e-07
3.9899e-07
2.46946e-07
1.18423e-07
3.40918e-07
5.57356e-07
7.7191e-07
9.27908e-07
9.82173e-07
9.2399e-07
7.67982e-07
5.73717e-07
3.74004e-07
1.99018e-07
4.0094e-07
6.45119e-07
8.97899e-07
1.10977e-06
1.22922e-06
1.21434e-06
1.06514e-06
8.26883e-07
5.54599e-07
3.04713e-07
4.20101e-07
6.69156e-07
9.36548e-07
1.16758e-06
1.31623e-06
1.33795e-06
1.21753e-06
9.74482e-07
6.54881e-07
3.70038e-07
3.83331e-07
6.59148e-07
9.75826e-07
1.25596e-06
1.43643e-06
1.46048e-06
1.31911e-06
1.05528e-06
7.31462e-07
4.35988e-07
3.32633e-07
5.91691e-07
8.89171e-07
1.15153e-06
1.32577e-06
1.36962e-06
1.28575e-06
1.10283e-06
8.11448e-07
4.86088e-07
2.37585e-07
4.15363e-07
6.07316e-07
7.90768e-07
9.33216e-07
1.00666e-06
9.81892e-07
8.37112e-07
5.82662e-07
3.09088e-07
2.65702e-07
4.42051e-07
5.87526e-07
6.87436e-07
7.51374e-07
7.83065e-07
7.41474e-07
6.03027e-07
3.96621e-07
2.02019e-07
3.21342e-07
5.4737e-07
7.34959e-07
8.08614e-07
7.70509e-07
7.05667e-07
6.49361e-07
5.59581e-07
3.9141e-07
2.18518e-07
2.46964e-07
4.49343e-07
7.05128e-07
9.01386e-07
9.97243e-07
9.84206e-07
8.83218e-07
7.03352e-07
4.47688e-07
2.42943e-07
2.32306e-07
3.83024e-07
6.08462e-07
8.62322e-07
1.07356e-06
1.15497e-06
1.06997e-06
8.2096e-07
5.16638e-07
2.72227e-07
3.38795e-07
5.52855e-07
8.09523e-07
1.04929e-06
1.29128e-06
1.49105e-06
1.41089e-06
1.0807e-06
6.77497e-07
3.76645e-07
5.8493e-07
8.37755e-07
1.18956e-06
1.60304e-06
2.04397e-06
2.30177e-06
2.08512e-06
1.57539e-06
1.01696e-06
6.321e-07
7.95147e-07
1.095e-06
1.56843e-06
2.17561e-06
2.71703e-06
2.89845e-06
2.53334e-06
1.87798e-06
1.23213e-06
7.96531e-07
8.47429e-07
1.19391e-06
1.54779e-06
2.04111e-06
2.58126e-06
2.78927e-06
2.44903e-06
1.79079e-06
1.16099e-06
7.26771e-07
7.77442e-07
1.19472e-06
1.55136e-06
1.79584e-06
2.00935e-06
2.12347e-06
1.91393e-06
1.41905e-06
9.15827e-07
5.52184e-07
5.86136e-07
9.9089e-07
1.42134e-06
1.68161e-06
1.7419e-06
1.65952e-06
1.44575e-06
1.12022e-06
7.83394e-07
4.95781e-07
4.56436e-07
8.31614e-07
1.294e-06
1.62456e-06
1.69398e-06
1.59061e-06
1.41151e-06
1.19388e-06
9.22511e-07
6.17094e-07
4.40978e-07
7.87795e-07
1.23963e-06
1.59394e-06
1.65401e-06
1.57183e-06
1.50624e-06
1.39735e-06
1.10914e-06
7.37915e-07
6.00124e-07
1.03609e-06
1.62104e-06
2.2383e-06
2.64293e-06
2.61121e-06
2.30794e-06
1.88434e-06
1.33643e-06
8.11802e-07
6.96925e-07
1.16546e-06
1.83741e-06
2.62322e-06
3.41136e-06
3.94426e-06
3.79496e-06
2.96532e-06
1.86805e-06
1.01337e-06
2.77552e-07
3.92333e-07
4.87657e-07
5.89987e-07
9.90195e-07
2.25535e-06
3.19521e-06
3.10848e-06
2.2529e-06
1.33894e-06
1.08111e-08
2.9871e-08
1.83886e-07
4.45556e-07
4.1169e-07
1.88204e-07
9.54583e-07
2.05031e-06
1.81137e-06
1.21811e-06
1.24652e-08
7.36392e-08
4.59722e-07
7.98849e-07
4.65441e-07
5.03544e-07
4.66798e-07
7.05168e-07
1.06224e-06
7.67417e-07
3.38466e-07
3.20742e-07
8.08887e-07
1.47285e-06
1.21326e-06
9.47994e-07
8.85762e-07
7.5771e-07
7.22777e-07
4.92007e-07
7.24287e-07
6.66841e-07
1.03539e-06
2.33961e-06
3.40728e-06
2.85715e-06
1.49987e-06
4.68157e-07
1.86092e-07
3.10697e-07
8.74898e-07
5.94288e-07
3.72472e-07
1.18019e-06
3.88906e-06
6.3575e-06
5.58106e-06
2.75705e-06
6.23343e-07
3.74605e-07
1.14802e-06
1.139e-06
6.83618e-07
7.07885e-08
1.08337e-06
4.34337e-06
5.47521e-06
2.55142e-06
2.33937e-07
4.99827e-07
1.32897e-06
1.94806e-06
1.77002e-06
1.0232e-06
1.46012e-07
1.89558e-06
3.99879e-06
1.83817e-06
1.75065e-08
3.7806e-07
1.49515e-06
2.41071e-06
2.40367e-06
1.51491e-06
4.24485e-07
2.63136e-06
6.2904e-06
3.41684e-06
2.59043e-07
1.57372e-07
2.94662e-06
3.48595e-06
2.93014e-06
1.60652e-06
6.98668e-07
2.63915e-06
6.61377e-06
5.44807e-06
1.82668e-06
1.75641e-07
5.72725e-06
7.10869e-06
6.14424e-06
4.80246e-06
3.91906e-06
3.35295e-06
3.55052e-06
3.84529e-06
3.04099e-06
1.79642e-06
2.07383e-06
2.71464e-06
3.50549e-06
3.37545e-06
3.69384e-06
3.53199e-06
2.30817e-06
1.46935e-06
9.95531e-07
8.79895e-07
5.8162e-07
3.80383e-07
9.63491e-07
1.14645e-06
1.17078e-06
5.68558e-06
3.26274e-06
2.6199e-07
1.03406e-07
9.14328e-08
1.15852e-06
3.31246e-06
2.89076e-06
2.72796e-06
1.12123e-05
1.50737e-05
1.36847e-05
6.29166e-06
3.86289e-07
7.51911e-07
4.88201e-07
4.8986e-06
2.4211e-05
1.74228e-05
1.31402e-05
1.50963e-05
1.6679e-05
1.67726e-05
1.09818e-05
3.35449e-06
4.76514e-07
1.1601e-05
3.48043e-05
3.23201e-05
2.81544e-05
2.45794e-05
1.89365e-05
1.40563e-05
1.16293e-05
1.05241e-05
8.89056e-07
1.53295e-05
3.68632e-05
3.92568e-05
2.98877e-05
1.59167e-05
4.92556e-06
4.18259e-07
1.35512e-06
4.34653e-06
9.2291e-06
2.26385e-05
2.83222e-05
2.50798e-05
1.75522e-05
1.21021e-05
1.48076e-05
2.34272e-05
2.70568e-05
2.27004e-05
1.56729e-05
2.23747e-05
1.91166e-05
1.49755e-05
1.45047e-05
2.53221e-05
3.86653e-05
3.67215e-05
2.53887e-05
1.64583e-05
1.09437e-05
2.341e-05
3.80852e-05
4.21153e-05
4.6094e-05
5.14943e-05
3.98252e-05
2.33024e-05
1.32659e-05
9.30715e-06
4.4443e-09
7.23621e-09
1.07579e-08
1.40404e-08
1.58816e-08
1.57714e-08
1.4084e-08
1.14686e-08
8.48299e-09
5.7308e-09
6.97203e-09
1.42661e-08
2.56451e-08
3.9851e-08
5.22954e-08
5.76663e-08
5.36243e-08
4.21962e-08
2.81446e-08
1.67474e-08
2.57939e-08
4.27035e-08
6.58023e-08
9.21871e-08
1.15371e-07
1.2519e-07
1.14209e-07
8.55662e-08
5.37638e-08
3.13508e-08
3.94658e-08
6.34797e-08
9.64898e-08
1.32567e-07
1.60768e-07
1.68643e-07
1.51146e-07
1.16195e-07
7.87343e-08
4.94088e-08
5.39269e-08
8.9832e-08
1.4248e-07
1.99255e-07
2.4075e-07
2.53743e-07
2.33773e-07
1.8711e-07
1.28162e-07
7.5515e-08
6.23863e-08
1.29885e-07
2.12741e-07
2.95825e-07
3.52021e-07
3.67272e-07
3.37789e-07
2.69891e-07
1.84047e-07
1.07601e-07
5.2523e-08
1.26265e-07
2.29149e-07
3.35261e-07
4.00661e-07
4.05074e-07
3.54703e-07
2.70385e-07
1.8149e-07
1.09236e-07
7.83972e-08
1.61963e-07
2.86133e-07
4.17996e-07
4.96556e-07
5.00392e-07
4.38359e-07
3.39024e-07
2.35277e-07
1.4635e-07
1.27584e-07
2.40965e-07
3.88235e-07
5.37567e-07
6.33336e-07
6.44099e-07
5.76007e-07
4.57014e-07
3.1864e-07
1.96474e-07
1.53973e-07
2.8942e-07
4.58947e-07
6.19281e-07
7.21241e-07
7.40165e-07
6.7237e-07
5.38906e-07
3.80583e-07
2.43558e-07
2.02124e-07
3.76606e-07
5.98012e-07
8.08473e-07
9.46692e-07
9.69231e-07
8.72967e-07
6.96934e-07
4.97729e-07
3.24319e-07
2.60806e-07
4.58685e-07
6.98845e-07
9.1889e-07
1.07284e-06
1.11128e-06
1.01705e-06
8.24005e-07
5.96213e-07
3.8778e-07
3.07427e-07
4.90166e-07
6.94407e-07
8.76883e-07
1.00097e-06
1.03391e-06
9.61762e-07
8.04694e-07
6.0334e-07
3.99658e-07
3.92067e-07
5.69226e-07
7.37476e-07
8.94472e-07
1.01519e-06
1.04792e-06
9.68268e-07
7.86743e-07
5.61953e-07
3.52471e-07
4.30365e-07
5.8157e-07
7.41195e-07
9.17767e-07
1.04898e-06
1.06386e-06
9.60987e-07
7.58248e-07
5.1758e-07
3.05207e-07
4.79841e-07
6.05661e-07
7.28937e-07
8.70889e-07
9.8055e-07
9.93729e-07
8.88418e-07
6.82176e-07
4.40346e-07
2.42532e-07
5.442e-07
7.52785e-07
9.09707e-07
1.03167e-06
1.09654e-06
1.09445e-06
9.91981e-07
7.74935e-07
5.00174e-07
2.73797e-07
3.66117e-07
5.9766e-07
8.1519e-07
9.89353e-07
1.08138e-06
1.07461e-06
9.74252e-07
7.79884e-07
5.19362e-07
3.10729e-07
2.11579e-07
3.64951e-07
5.41951e-07
6.97168e-07
7.85245e-07
7.81407e-07
6.97578e-07
5.69627e-07
4.09846e-07
2.48086e-07
1.42113e-07
2.25633e-07
3.41593e-07
4.79332e-07
6.02785e-07
6.50072e-07
5.84756e-07
4.55849e-07
3.30873e-07
2.19948e-07
2.567e-07
4.04176e-07
6.02025e-07
7.85744e-07
9.53043e-07
1.03278e-06
9.07003e-07
6.31885e-07
4.17494e-07
2.8873e-07
4.60789e-07
7.75436e-07
1.19765e-06
1.43785e-06
1.43315e-06
1.39467e-06
1.33219e-06
1.0675e-06
7.53419e-07
5.40008e-07
5.9189e-07
9.61036e-07
1.39428e-06
1.65542e-06
1.61548e-06
1.49411e-06
1.54379e-06
1.43307e-06
1.13412e-06
8.1679e-07
4.94573e-07
7.93376e-07
1.14499e-06
1.4314e-06
1.5759e-06
1.55059e-06
1.44321e-06
1.34358e-06
1.16082e-06
8.74679e-07
4.22965e-07
6.76805e-07
9.97802e-07
1.29717e-06
1.47086e-06
1.50374e-06
1.40479e-06
1.23839e-06
9.97274e-07
7.32994e-07
4.59351e-07
7.26611e-07
9.91059e-07
1.1538e-06
1.20596e-06
1.19752e-06
1.11941e-06
9.56439e-07
7.4064e-07
5.21463e-07
5.15099e-07
7.89898e-07
1.04159e-06
1.16571e-06
1.20437e-06
1.15121e-06
1.00065e-06
8.12282e-07
5.71376e-07
3.89311e-07
5.36612e-07
8.76214e-07
1.22887e-06
1.45201e-06
1.4963e-06
1.35267e-06
1.07204e-06
8.18675e-07
5.74288e-07
3.88753e-07
6.67775e-07
1.12553e-06
1.58155e-06
1.85796e-06
1.91447e-06
1.78418e-06
1.49153e-06
1.18094e-06
8.75754e-07
5.87956e-07
7.60272e-07
1.14607e-06
1.48804e-06
1.73943e-06
1.88375e-06
1.90438e-06
1.74918e-06
1.46106e-06
1.09018e-06
7.13159e-07
1.05345e-06
1.23711e-06
1.47383e-06
1.67587e-06
1.74971e-06
1.59446e-06
1.26229e-06
9.3112e-07
6.38618e-07
3.40315e-07
1.50811e-06
1.69123e-06
1.69509e-06
1.38804e-06
1.08492e-06
9.93601e-07
7.72584e-07
4.3935e-07
2.34547e-07
7.31453e-08
1.66796e-06
1.54631e-06
1.22131e-06
1.52213e-06
2.41449e-06
2.50289e-06
1.61612e-06
8.29301e-07
3.60997e-07
1.04183e-07
1.53446e-06
1.73464e-06
2.70909e-06
4.52229e-06
6.18064e-06
6.40609e-06
5.07165e-06
3.19392e-06
1.52017e-06
6.02502e-07
1.27912e-06
2.13344e-06
3.77142e-06
5.73858e-06
7.34539e-06
8.05427e-06
7.0679e-06
4.50897e-06
2.12507e-06
1.11322e-06
6.05448e-07
9.71118e-07
1.70797e-06
2.7298e-06
3.69128e-06
4.11417e-06
3.62079e-06
2.43857e-06
1.427e-06
1.05626e-06
4.21771e-07
6.71707e-07
1.15822e-06
1.59085e-06
1.96904e-06
1.98487e-06
1.61604e-06
1.22778e-06
8.56441e-07
7.35632e-07
3.62121e-08
2.61889e-07
7.06465e-07
9.02703e-07
7.77206e-07
6.74186e-07
6.86174e-07
7.47125e-07
7.14959e-07
6.372e-07
2.88208e-08
9.75306e-08
3.293e-07
3.90171e-07
5.78791e-07
1.05998e-06
7.43785e-07
2.41534e-07
3.05461e-07
6.99331e-07
7.22751e-07
1.5138e-06
2.83928e-06
3.5006e-06
3.38415e-06
3.19412e-06
2.94061e-06
2.8143e-06
2.82995e-06
2.72757e-06
7.99409e-07
1.53009e-06
2.49016e-06
4.49787e-06
7.59899e-06
8.58896e-06
7.11517e-06
7.27941e-06
7.15611e-06
5.62787e-06
2.14106e-06
2.99761e-06
5.12801e-06
1.0708e-05
1.87769e-05
2.38633e-05
1.87211e-05
8.60784e-06
4.08111e-06
2.56884e-06
3.7192e-06
5.33404e-06
9.04904e-06
1.51662e-05
2.1646e-05
2.52904e-05
2.36e-05
1.56334e-05
7.36185e-06
2.19515e-06
8.44804e-06
1.22964e-05
1.77211e-05
2.46675e-05
3.11744e-05
3.30707e-05
2.43069e-05
1.17799e-05
4.69095e-06
1.60452e-06
1.30257e-05
1.88244e-05
2.39308e-05
2.41875e-05
1.79326e-05
8.14043e-06
3.07574e-06
3.27712e-06
2.91628e-06
8.61236e-07
2.02058e-06
1.76557e-06
1.21434e-06
5.63684e-07
3.92093e-08
1.20936e-06
2.36103e-06
3.83788e-06
3.34944e-06
2.04514e-07
6.14213e-07
2.2479e-06
4.87476e-06
4.21635e-06
3.39747e-06
4.28689e-06
5.55816e-06
1.07961e-06
9.77973e-07
4.09822e-06
5.85773e-07
1.32392e-06
4.14246e-06
6.82589e-06
8.81963e-06
8.05494e-06
4.48518e-06
2.85864e-06
7.2219e-06
6.2306e-06
1.64536e-06
7.87968e-07
3.53184e-06
5.39099e-06
4.67076e-06
7.04095e-06
1.3557e-05
1.11024e-05
6.37393e-06
8.97513e-06
2.15696e-05
2.37658e-05
3.24828e-05
3.49101e-05
3.78709e-05
3.99692e-05
3.20424e-05
2.34833e-05
1.92377e-05
9.74746e-06
5.28654e-09
7.96108e-09
1.10118e-08
1.36345e-08
1.52713e-08
1.55965e-08
1.4387e-08
1.16747e-08
8.04944e-09
4.7951e-09
8.61993e-09
1.71858e-08
3.07817e-08
4.53083e-08
5.5751e-08
5.83021e-08
5.12421e-08
3.67107e-08
2.04759e-08
8.75673e-09
1.71857e-08
3.447e-08
6.39379e-08
9.9259e-08
1.27096e-07
1.35014e-07
1.19537e-07
8.82342e-08
5.4696e-08
2.87551e-08
4.51418e-08
7.98786e-08
1.22144e-07
1.62807e-07
1.8943e-07
1.90481e-07
1.64382e-07
1.21335e-07
7.70285e-08
4.28285e-08
7.58242e-08
1.27011e-07
1.78646e-07
2.15957e-07
2.32755e-07
2.26816e-07
1.9448e-07
1.42707e-07
9.15828e-08
5.46835e-08
9.5762e-08
1.53994e-07
2.13846e-07
2.60835e-07
2.79218e-07
2.56304e-07
1.96626e-07
1.2625e-07
7.14666e-08
4.27019e-08
1.14946e-07
1.80159e-07
2.4605e-07
2.93306e-07
3.0343e-07
2.67432e-07
2.01551e-07
1.32082e-07
7.47889e-08
3.96823e-08
1.45973e-07
2.32642e-07
3.27035e-07
4.09381e-07
4.54074e-07
4.43087e-07
3.74088e-07
2.68899e-07
1.60598e-07
7.95263e-08
1.67817e-07
2.75992e-07
4.09859e-07
5.33319e-07
6.09105e-07
6.09219e-07
5.29568e-07
3.92046e-07
2.42708e-07
1.27728e-07
1.91932e-07
3.01732e-07
4.49309e-07
5.87046e-07
6.70423e-07
6.70333e-07
5.84592e-07
4.34238e-07
2.73276e-07
1.49668e-07
2.46786e-07
3.92695e-07
5.74346e-07
7.38189e-07
8.30812e-07
8.14331e-07
6.94964e-07
5.15402e-07
3.33855e-07
1.90964e-07
3.08818e-07
4.9225e-07
7.04691e-07
8.94248e-07
9.92075e-07
9.66901e-07
8.28484e-07
6.26159e-07
4.235e-07
2.5098e-07
3.66887e-07
5.67371e-07
7.73041e-07
9.46096e-07
1.03778e-06
1.01478e-06
8.99615e-07
7.13548e-07
5.01593e-07
3.09881e-07
3.80668e-07
5.92042e-07
8.0171e-07
9.76848e-07
1.06957e-06
1.04183e-06
9.41621e-07
8.00193e-07
6.18127e-07
4.11767e-07
4.04246e-07
6.2519e-07
8.62061e-07
1.06382e-06
1.16329e-06
1.13119e-06
9.77956e-07
8.09957e-07
6.5402e-07
4.67734e-07
3.36792e-07
5.52557e-07
7.95916e-07
1.00979e-06
1.12156e-06
1.10273e-06
9.74442e-07
8.09709e-07
6.49485e-07
4.85516e-07
3.39344e-07
6.01819e-07
9.1788e-07
1.16541e-06
1.28206e-06
1.2815e-06
1.19969e-06
1.0244e-06
7.85473e-07
5.36536e-07
3.16221e-07
5.88897e-07
9.17619e-07
1.17434e-06
1.31865e-06
1.3318e-06
1.19456e-06
9.34448e-07
6.31316e-07
3.71317e-07
2.604e-07
4.48456e-07
6.7123e-07
8.71038e-07
9.99522e-07
9.98157e-07
8.51185e-07
6.24914e-07
3.95911e-07
2.19081e-07
2.24317e-07
3.36507e-07
4.63736e-07
5.78362e-07
6.43142e-07
6.26207e-07
5.22493e-07
3.83285e-07
2.55053e-07
1.56268e-07
2.90874e-07
3.97969e-07
5.29925e-07
6.91888e-07
8.19938e-07
8.36956e-07
7.3863e-07
5.79635e-07
4.11905e-07
2.65443e-07
5.5155e-07
7.71612e-07
1.03977e-06
1.27097e-06
1.3699e-06
1.35546e-06
1.24397e-06
1.03098e-06
7.51022e-07
4.68157e-07
8.09359e-07
1.11235e-06
1.40587e-06
1.59244e-06
1.70483e-06
1.70965e-06
1.55975e-06
1.29669e-06
9.65029e-07
5.9931e-07
7.1889e-07
9.55088e-07
1.19479e-06
1.40867e-06
1.51706e-06
1.50335e-06
1.37306e-06
1.14953e-06
8.4794e-07
5.1617e-07
5.07332e-07
7.00931e-07
8.54743e-07
9.64035e-07
1.05771e-06
1.13258e-06
1.12228e-06
9.82132e-07
7.25112e-07
4.40132e-07
2.69053e-07
3.81536e-07
5.53098e-07
6.91927e-07
7.92686e-07
9.0167e-07
9.9857e-07
9.45207e-07
7.2383e-07
4.61921e-07
3.42986e-07
4.55937e-07
6.40844e-07
7.99862e-07
8.72894e-07
9.50671e-07
1.0658e-06
1.02776e-06
7.86761e-07
5.09755e-07
3.86235e-07
4.88228e-07
5.65838e-07
6.60577e-07
8.4915e-07
1.0692e-06
1.17752e-06
1.06871e-06
7.73884e-07
5.06416e-07
5.39806e-07
5.58346e-07
5.4043e-07
5.91016e-07
7.97278e-07
1.15344e-06
1.23725e-06
1.12407e-06
8.75637e-07
6.23575e-07
7.23691e-07
5.08198e-07
6.32077e-07
1.01297e-06
1.23275e-06
1.55424e-06
1.63973e-06
1.3097e-06
1.00987e-06
7.48181e-07
9.95478e-07
7.79509e-07
7.37152e-07
1.36581e-06
1.93155e-06
2.18175e-06
2.50261e-06
2.45327e-06
1.93918e-06
1.28015e-06
9.89567e-07
1.35239e-06
1.44187e-06
1.3482e-06
1.58487e-06
2.07572e-06
2.54583e-06
2.81626e-06
2.54032e-06
1.73782e-06
8.39707e-07
1.25242e-06
1.54889e-06
1.51325e-06
1.46744e-06
2.03038e-06
2.37341e-06
2.27573e-06
2.11717e-06
1.69541e-06
1.14212e-06
2.29799e-06
2.7637e-06
3.1054e-06
3.98982e-06
4.0057e-06
3.17219e-06
2.50894e-06
2.30501e-06
1.90545e-06
5.57789e-07
1.46277e-06
2.35757e-06
3.09949e-06
3.24501e-06
2.56599e-06
2.16523e-06
2.18983e-06
2.19825e-06
1.55966e-06
2.2046e-07
3.71587e-07
5.77594e-07
6.47301e-07
6.08711e-07
4.94855e-07
5.8775e-07
8.96332e-07
1.03507e-06
7.38919e-07
3.17097e-07
4.1879e-07
3.88155e-07
3.96606e-07
5.54028e-07
8.35798e-07
1.10355e-06
1.20301e-06
9.74292e-07
5.33327e-07
3.11429e-07
4.73708e-07
4.76591e-07
2.95674e-07
8.74994e-08
1.40136e-08
1.24919e-07
2.08413e-07
1.54053e-07
5.18406e-08
2.43997e-07
1.17224e-07
5.84442e-07
1.28597e-06
1.72317e-06
1.31192e-06
4.89282e-07
7.62183e-08
8.88499e-09
8.86265e-09
4.14557e-07
4.82501e-07
4.56019e-07
6.98712e-07
1.34041e-06
1.91211e-06
1.48536e-06
9.1705e-07
6.50725e-07
5.37783e-07
3.17429e-06
6.21247e-06
7.25613e-06
2.70742e-06
1.37126e-06
1.83792e-06
1.80366e-06
1.58108e-06
1.11912e-06
6.97501e-07
4.94831e-06
4.49628e-06
8.62466e-06
1.53061e-05
1.14776e-05
6.88339e-06
7.21256e-06
7.17347e-06
5.46834e-06
3.07388e-06
2.55317e-06
1.02051e-05
1.78364e-05
1.84445e-05
1.4167e-05
1.28465e-05
1.40838e-05
1.25869e-05
8.81943e-06
4.99855e-06
1.60439e-06
4.37496e-06
8.57408e-06
1.15237e-05
1.32126e-05
1.68068e-05
1.9742e-05
1.7924e-05
1.35958e-05
9.17761e-06
2.43922e-06
1.20954e-06
3.18788e-06
4.26675e-06
4.62908e-06
8.57719e-06
1.52979e-05
1.8715e-05
1.73374e-05
1.34979e-05
3.75198e-06
5.18784e-07
3.34667e-06
1.97143e-06
1.23039e-06
4.97323e-07
1.1684e-06
2.68515e-06
3.29954e-06
2.6612e-06
7.22196e-07
2.27215e-06
1.97972e-06
4.58186e-07
6.54861e-07
2.18817e-06
2.95963e-06
1.64887e-06
6.34244e-07
7.66843e-08
1.89395e-05
2.36961e-05
2.83312e-05
2.8901e-05
2.09344e-05
1.26077e-05
7.16189e-06
5.5546e-06
3.48167e-06
1.40273e-06
3.31092e-05
3.47277e-05
2.95832e-05
2.4885e-05
2.20329e-05
1.9317e-05
1.6529e-05
1.22288e-05
7.90158e-06
4.19546e-06
1.31106e-05
1.2271e-05
1.9188e-05
3.21436e-05
3.99659e-05
4.15908e-05
4.06635e-05
3.67696e-05
2.87531e-05
2.30701e-05
6.10652e-09
9.01155e-09
1.19027e-08
1.41572e-08
1.54008e-08
1.53991e-08
1.41113e-08
1.1699e-08
8.59506e-09
5.53263e-09
1.10767e-08
2.21715e-08
3.57951e-08
4.71018e-08
5.31265e-08
5.28274e-08
4.61226e-08
3.42742e-08
2.075e-08
1.00058e-08
2.19955e-08
4.8397e-08
8.0751e-08
1.07965e-07
1.22062e-07
1.19345e-07
1.00819e-07
7.22125e-08
4.25713e-08
2.03173e-08
4.39981e-08
8.26221e-08
1.27814e-07
1.64884e-07
1.81218e-07
1.72862e-07
1.44293e-07
1.05862e-07
6.93508e-08
4.20147e-08
6.45215e-08
1.06056e-07
1.53739e-07
1.94675e-07
2.1495e-07
2.10034e-07
1.83458e-07
1.43172e-07
1.0171e-07
6.68147e-08
9.3879e-08
1.3928e-07
1.95677e-07
2.53083e-07
2.89273e-07
2.91717e-07
2.60464e-07
2.06764e-07
1.46682e-07
9.21187e-08
1.26998e-07
1.83381e-07
2.32674e-07
2.92778e-07
3.39931e-07
3.54977e-07
3.35227e-07
2.81291e-07
2.03535e-07
1.23253e-07
1.37978e-07
2.36062e-07
3.41246e-07
4.34732e-07
4.98341e-07
5.14235e-07
4.82225e-07
4.02418e-07
2.85836e-07
1.65534e-07
9.78567e-08
2.00645e-07
3.40094e-07
4.92033e-07
6.14529e-07
6.66708e-07
6.23695e-07
4.9481e-07
3.28937e-07
1.85606e-07
1.01643e-07
1.96012e-07
3.19832e-07
4.74168e-07
6.11088e-07
6.62545e-07
6.24436e-07
5.25715e-07
3.68292e-07
2.12703e-07
1.78858e-07
3.13638e-07
4.69855e-07
6.09813e-07
7.2356e-07
7.68134e-07
7.29205e-07
6.09651e-07
4.38538e-07
2.61942e-07
2.85226e-07
4.92935e-07
7.34817e-07
9.21973e-07
1.01404e-06
1.02174e-06
9.36592e-07
7.61473e-07
5.39041e-07
3.25582e-07
3.50414e-07
5.75418e-07
8.56136e-07
1.09646e-06
1.22893e-06
1.21398e-06
1.0821e-06
8.58589e-07
5.9792e-07
3.71448e-07
4.13199e-07
6.28454e-07
9.09382e-07
1.16152e-06
1.33161e-06
1.36532e-06
1.23426e-06
9.74913e-07
6.69622e-07
4.03377e-07
4.32478e-07
6.58739e-07
9.73002e-07
1.25384e-06
1.428e-06
1.47916e-06
1.37182e-06
1.11393e-06
7.73558e-07
4.56328e-07
2.80057e-07
4.92244e-07
7.73437e-07
1.03789e-06
1.19539e-06
1.22188e-06
1.13287e-06
9.41238e-07
6.67011e-07
3.90616e-07
1.98331e-07
3.80872e-07
5.94913e-07
7.73789e-07
8.9116e-07
9.23033e-07
8.73881e-07
7.38292e-07
5.29993e-07
3.22581e-07
2.07705e-07
3.6395e-07
5.22024e-07
6.38895e-07
7.28818e-07
7.89922e-07
7.85658e-07
6.83227e-07
4.95442e-07
2.92418e-07
2.3401e-07
4.27535e-07
6.4725e-07
8.20325e-07
9.16767e-07
9.41511e-07
8.58238e-07
6.78905e-07
4.50206e-07
2.53237e-07
2.75599e-07
5.08041e-07
7.70508e-07
9.93982e-07
1.08807e-06
1.03158e-06
8.61779e-07
6.34317e-07
4.14961e-07
2.47763e-07
3.80676e-07
6.5148e-07
9.60278e-07
1.24576e-06
1.38478e-06
1.28598e-06
1.02321e-06
7.64834e-07
5.27063e-07
3.37993e-07
6.39287e-07
1.01952e-06
1.43013e-06
1.81143e-06
2.05554e-06
2.0011e-06
1.69973e-06
1.29274e-06
8.63891e-07
5.6294e-07
7.96862e-07
1.25279e-06
1.74242e-06
2.1754e-06
2.44996e-06
2.48223e-06
2.25623e-06
1.80136e-06
1.25548e-06
7.97184e-07
6.81462e-07
1.02867e-06
1.40326e-06
1.74798e-06
1.97838e-06
2.02274e-06
1.89168e-06
1.62008e-06
1.18545e-06
7.68598e-07
4.93524e-07
6.77579e-07
8.93968e-07
1.14241e-06
1.33339e-06
1.39589e-06
1.36607e-06
1.22426e-06
9.09086e-07
5.7863e-07
4.54038e-07
6.28993e-07
8.56046e-07
1.10491e-06
1.29657e-06
1.35255e-06
1.24728e-06
9.99047e-07
6.7323e-07
3.76121e-07
5.93649e-07
8.62431e-07
1.15757e-06
1.4608e-06
1.66605e-06
1.5928e-06
1.21401e-06
7.8485e-07
5.21358e-07
3.58998e-07
7.14455e-07
1.05604e-06
1.42305e-06
1.81057e-06
2.0216e-06
1.82724e-06
1.34304e-06
1.00082e-06
7.45534e-07
4.88836e-07
7.32097e-07
1.03494e-06
1.37013e-06
1.75017e-06
1.92396e-06
1.75597e-06
1.44452e-06
1.16289e-06
8.58299e-07
6.15362e-07
8.21447e-07
1.04937e-06
1.46147e-06
2.02518e-06
2.257e-06
2.05788e-06
1.73921e-06
1.47026e-06
1.16543e-06
9.08995e-07
1.24745e-06
1.8341e-06
2.32763e-06
2.29058e-06
1.93705e-06
1.67994e-06
1.58444e-06
1.50207e-06
1.32244e-06
1.04225e-06
1.22779e-06
1.61072e-06
1.39937e-06
6.63692e-07
1.17468e-07
1.97502e-07
6.26416e-07
9.54865e-07
9.61826e-07
7.89232e-07
7.03101e-07
6.12832e-07
3.03638e-07
1.13352e-07
4.84322e-07
6.53364e-07
6.36954e-07
6.74726e-07
7.7163e-07
6.81237e-07
4.7707e-07
5.19862e-07
2.77273e-07
8.08662e-07
1.29886e-06
9.33388e-07
5.44249e-07
6.86294e-07
9.10643e-07
6.16481e-07
5.49495e-07
1.08783e-06
1.67423e-06
1.95868e-06
1.27603e-06
2.8292e-07
1.16169e-07
3.95151e-07
4.80237e-07
3.11541e-07
7.81444e-07
1.29231e-06
1.32895e-06
8.31826e-07
1.06054e-07
2.66715e-07
1.94547e-07
8.81755e-09
6.1753e-08
1.71313e-07
7.3835e-07
8.06592e-07
7.20213e-07
3.30375e-07
5.00112e-07
1.16e-06
8.96498e-07
5.41444e-07
5.07906e-07
3.57432e-07
4.98914e-07
5.70727e-07
2.99055e-07
3.61258e-07
4.74115e-07
9.18581e-07
1.75341e-06
1.41982e-06
7.6384e-07
3.54537e-07
1.85109e-07
1.76609e-07
7.18118e-07
2.89349e-06
3.88104e-06
1.56676e-06
6.65731e-07
9.01405e-07
7.83056e-07
4.88272e-07
3.6626e-08
2.13584e-07
1.90824e-06
4.90074e-06
5.88052e-06
3.24728e-06
9.84861e-07
4.91572e-07
4.76561e-07
3.93725e-07
1.27393e-06
5.51557e-07
1.78065e-06
5.28599e-06
6.27785e-06
4.23678e-06
2.59877e-06
2.22352e-06
2.16441e-06
2.16592e-06
9.47227e-07
5.29206e-07
8.2345e-07
3.78254e-06
5.9209e-06
6.22377e-06
6.17629e-06
5.86667e-06
5.20268e-06
4.11718e-06
4.20239e-07
7.44989e-07
1.45355e-06
1.2643e-06
2.05969e-06
3.49161e-06
1.64103e-06
8.32528e-07
1.02699e-06
3.62212e-07
1.1482e-06
2.71084e-06
3.77651e-07
4.15099e-06
9.31693e-06
1.2896e-05
5.46708e-06
2.22646e-06
4.94048e-06
2.21793e-06
2.58252e-06
6.15403e-06
1.95443e-06
9.57267e-06
1.60356e-05
1.15206e-05
1.0882e-05
1.30768e-05
4.89734e-06
1.71711e-06
1.18762e-05
1.40816e-05
1.97015e-05
6.70389e-06
6.67435e-06
1.38862e-06
8.60091e-06
1.79628e-05
1.54009e-05
7.21959e-07
8.89034e-06
1.57001e-05
2.19545e-05
1.25088e-05
2.23699e-06
6.86012e-06
9.87787e-06
1.57835e-05
1.89615e-05
1.00807e-05
2.32491e-05
3.03049e-05
3.57254e-05
2.71595e-05
2.39094e-05
4.98448e-05
4.08515e-05
3.11482e-05
2.5305e-05
1.99258e-05
1.88967e-05
2.71076e-05
3.34876e-05
3.28452e-05
2.82718e-05
5.28755e-05
6.59129e-05
5.3003e-05
4.3856e-05
3.5856e-05
1.09323e-05
1.60864e-05
1.9825e-05
2.71367e-05
3.00109e-05
4.84967e-05
8.23033e-05
7.00394e-05
4.98032e-05
2.3587e-05
)
;
    }
    inlet
    {
        type            calculated;
        value           uniform 0;
    }
    outlet
    {
        type            calculated;
        value           uniform 0;
    }
}


// ************************************************************************* //
