/*--------------------------------*- C++ -*----------------------------------*\
| =========                 |                                                 |
| \\      /  F ield         | OpenFOAM: The Open Source CFD Toolbox           |
|  \\    /   O peration     | Version:  2406                                  |
|   \\  /    A nd           | Website:  www.openfoam.com                      |
|    \\/     M anipulation  |                                                 |
\*---------------------------------------------------------------------------*/
FoamFile
{
    version     2.0;
    format      ascii;
    arch        "LSB;label=32;scalar=64";
    class       volSymmTensorField;
    location    "0.2";
    object      turbulenceProperties:devReff;
}
// * * * * * * * * * * * * * * * * * * * * * * * * * * * * * * * * * * * * * //

dimensions      [0 2 -2 0 0 0 0];

internalField   nonuniform List<symmTensor> 
25000
(
(-0.109434 -0.0151928 -0.265957 0.0802428 -0.256354 0.0291912)
(-0.0798572 0.05908 -0.186554 0.124964 -0.22306 -0.0451071)
(-0.0814748 0.0432117 -0.147515 0.159112 -0.163095 -0.0776369)
(-0.0498413 0.00680539 -0.128812 0.17388 -0.1145 -0.124038)
(0.0162497 -0.0346521 -0.107198 0.169473 -0.0947865 -0.185723)
(0.0943354 -0.0667203 -0.0772138 0.15061 -0.101478 -0.244945)
(0.158907 -0.0815455 -0.0434275 0.126956 -0.121404 -0.285864)
(0.199843 -0.0770135 -0.00816788 0.103137 -0.143205 -0.302981)
(0.218353 -0.0547772 0.0405629 0.0769029 -0.164017 -0.295256)
(0.147477 0.0398758 0.133516 0.0728696 -0.175413 -0.220346)
(-0.0909088 0.111141 -0.232992 0.166561 -0.134274 -0.075652)
(-0.0876061 0.128264 -0.118916 0.196077 -0.0576578 -0.108471)
(-0.124028 0.0745241 -0.08304 0.218405 0.00538305 -0.0943775)
(-0.112133 0.00688612 -0.0876963 0.218968 0.0410007 -0.106835)
(-0.0457479 -0.0555285 -0.0939167 0.205008 0.0412609 -0.15926)
(0.050999 -0.0954882 -0.0849929 0.181307 0.0181331 -0.232306)
(0.139748 -0.10983 -0.0644161 0.15619 -0.0111058 -0.295938)
(0.2012 -0.105688 -0.0365481 0.134687 -0.0372467 -0.335887)
(0.235761 -0.0908536 0.0118925 0.115102 -0.0600638 -0.350864)
(0.173583 -0.0356892 0.124085 0.12222 -0.0896891 -0.295802)
(-0.0611156 0.139083 -0.17747 0.154366 -0.0365161 -0.0932501)
(-0.0886914 0.133381 -0.0576689 0.150537 0.0489152 -0.0618454)
(-0.150868 0.0710038 -0.0341099 0.150807 0.112409 6.09118e-05)
(-0.154507 0.000767684 -0.0689454 0.139918 0.139226 0.0145886)
(-0.089196 -0.0634811 -0.104527 0.129076 0.124315 -0.0398801)
(0.0274955 -0.104312 -0.108304 0.117682 0.0831061 -0.145178)
(0.141931 -0.114211 -0.0869464 0.105474 0.0407923 -0.247405)
(0.220248 -0.105198 -0.0561405 0.0959245 0.00890934 -0.316172)
(0.262027 -0.0882846 -0.00701335 0.0888048 -0.0149495 -0.350832)
(0.205959 -0.046648 0.104166 0.110861 -0.0438455 -0.31682)
(-0.0428767 0.132056 -0.129184 0.108919 0.0383318 -0.066042)
(-0.0961115 0.114519 0.00249056 0.0718684 0.117067 0.0242431)
(-0.173226 0.0555891 0.00820027 0.0547959 0.170082 0.11843)
(-0.186706 -0.00346189 -0.0646734 0.0362101 0.186855 0.150496)
(-0.124739 -0.056367 -0.133453 0.0280693 0.164143 0.0966698)
(0.003269 -0.0924822 -0.149242 0.0312139 0.116373 -0.0344829)
(0.142272 -0.0998944 -0.118681 0.040706 0.0667209 -0.182978)
(0.236365 -0.0882335 -0.0761161 0.0508674 0.0309016 -0.287232)
(0.283645 -0.0707525 -0.021706 0.0591433 0.00704902 -0.342789)
(0.232427 -0.0381494 0.0887583 0.0925823 -0.0153586 -0.325009)
(-0.0376368 0.0991453 -0.0922396 0.0462353 0.0813941 -0.00859853)
(-0.102802 0.0791658 0.0526062 -0.0176251 0.131508 0.120427)
(-0.187163 0.0353044 0.0382864 -0.0452244 0.160929 0.232388)
(-0.20573 -0.00773962 -0.0711231 -0.0649754 0.165783 0.270706)
(-0.144924 -0.0412241 -0.169795 -0.0661162 0.145238 0.21104)
(-0.0119795 -0.061965 -0.194391 -0.052606 0.108277 0.0645854)
(0.143072 -0.0647985 -0.154252 -0.0243069 0.0696673 -0.118765)
(0.249636 -0.0539351 -0.0959605 0.00722177 0.0391919 -0.256858)
(0.300085 -0.0401565 -0.0334258 0.0312958 0.0196146 -0.331381)
(0.250104 -0.0192781 0.0787318 0.0743584 0.00596259 -0.324462)
(-0.0405681 0.04789 -0.0742437 -0.00940956 0.0855174 0.0499777)
(-0.106592 0.0358018 0.0764356 -0.0887249 0.0894371 0.195317)
(-0.192196 0.0134928 0.0480439 -0.121842 0.0859418 0.314038)
(-0.210085 -0.00747152 -0.0806712 -0.137938 0.0793338 0.348023)
(-0.148231 -0.018526 -0.194656 -0.129748 0.0710741 0.277979)
(-0.014711 -0.0192375 -0.223409 -0.105491 0.0623334 0.120202)
(0.144884 -0.0126312 -0.177462 -0.0651745 0.0510977 -0.0797096)
(0.256314 -0.00484247 -0.108962 -0.0190712 0.036659 -0.237243)
(0.307071 0.00117011 -0.0399161 0.0152689 0.0261324 -0.32234)
(0.255894 0.00722837 0.0751464 0.0629214 0.0232646 -0.318815)
(-0.0423991 -0.0117505 -0.0850592 -0.0307529 0.0665364 0.073152)
(-0.101414 -0.0101495 0.0647033 -0.115221 0.0223052 0.216636)
(-0.184035 -0.00469268 0.0363182 -0.146522 -0.0152433 0.330557)
(-0.198132 7.54599e-05 -0.0884379 -0.157085 -0.0305707 0.355217)
(-0.134 0.0130609 -0.196153 -0.142808 -0.0215536 0.276808)
(-0.00404299 0.0335698 -0.221648 -0.11006 0.00548876 0.114103)
(0.148503 0.0494964 -0.175843 -0.0635834 0.0250611 -0.0849193)
(0.254052 0.0520718 -0.108675 -0.0156992 0.0294568 -0.238352)
(0.302396 0.0476059 -0.0385452 0.0173496 0.029643 -0.319745)
(0.249695 0.0354216 0.0792664 0.0599498 0.0386414 -0.309645)
(-0.0416151 -0.0603983 -0.124672 -0.00697937 0.055584 0.0485945)
(-0.0911486 -0.0556769 0.0143822 -0.0771872 -0.0221492 0.168336)
(-0.16589 -0.0193544 0.00198783 -0.101914 -0.0848578 0.267804)
(-0.173296 0.0152055 -0.0932264 -0.1065 -0.104067 0.279796)
(-0.107575 0.0553295 -0.172706 -0.0887073 -0.0779552 0.196282)
(0.0158933 0.0938761 -0.187831 -0.055206 -0.0286855 0.0393127)
(0.149817 0.11114 -0.148981 -0.0144496 0.00866798 -0.135367)
(0.24105 0.106367 -0.09454 0.0182839 0.0256086 -0.259334)
(0.285046 0.0907657 -0.0282571 0.0365028 0.0355388 -0.321548)
(0.231532 0.0561562 0.0923954 0.0626593 0.0558676 -0.294191)
(-0.0461625 -0.0718728 -0.179032 0.0453138 0.0787155 0.000848722)
(-0.0756295 -0.0880398 -0.0661896 0.0230687 0.00360257 0.0525609)
(-0.139641 -0.0297839 -0.0522552 0.0158914 -0.0659479 0.123749)
(-0.136732 0.0360478 -0.0976381 0.0187618 -0.0855891 0.11797)
(-0.0693859 0.0988214 -0.136514 0.0348377 -0.0572288 0.0345482)
(0.039545 0.141553 -0.136324 0.054425 -0.0122311 -0.0939699)
(0.143509 0.155276 -0.10812 0.067858 0.0215281 -0.211367)
(0.217125 0.146584 -0.0674596 0.0713433 0.0430293 -0.288468)
(0.255071 0.121984 -0.00558949 0.0645084 0.0615067 -0.319579)
(0.199975 0.0619806 0.116134 0.0626571 0.0886168 -0.262632)
(-0.0486252 0.0177245 -0.210611 0.0334576 0.161867 0.0151676)
(-0.0319953 -0.0475392 -0.132062 0.0547771 0.127689 -0.0227819)
(-0.0580846 -0.00667223 -0.107313 0.0824048 0.0810275 -0.0243202)
(-0.0442163 0.0559249 -0.108281 0.0997729 0.0602935 -0.0555567)
(0.0111034 0.113005 -0.105517 0.107221 0.068032 -0.118325)
(0.085526 0.149119 -0.0895294 0.102817 0.0872219 -0.188343)
(0.157195 0.160496 -0.0611777 0.0859371 0.106704 -0.243132)
(0.21142 0.14668 -0.0215192 0.0583074 0.126311 -0.269728)
(0.236553 0.103448 0.0375678 0.0241864 0.148215 -0.260739)
(0.16608 -0.0178671 0.140142 0.000418283 0.161791 -0.166498)
(-0.186519 -0.00638104 -0.499212 0.167845 -0.571458 0.0186739)
(-0.149952 0.0606409 -0.17914 0.156653 -0.435449 -0.00670065)
(-0.167738 0.0463829 -0.113663 0.171803 -0.280205 -0.00406512)
(-0.186609 0.0137341 -0.166868 0.226128 -0.12387 -0.0395189)
(-0.152666 -0.0515051 -0.22315 0.280279 -0.0289475 -0.127614)
(-0.0585621 -0.118824 -0.219723 0.295568 -0.0239935 -0.237006)
(0.0684954 -0.155225 -0.148961 0.256243 -0.0892861 -0.324738)
(0.181216 -0.147371 -0.0314185 0.181114 -0.198468 -0.36233)
(0.245641 -0.104813 0.135829 0.108006 -0.330465 -0.353647)
(0.19715 0.000361472 0.432449 0.0742102 -0.441392 -0.27136)
(-0.179765 0.129542 -0.237002 0.207366 -0.140612 -0.0276003)
(-0.146972 0.127923 0.0927277 0.179599 0.129129 -0.0326279)
(-0.178424 0.0843027 0.0914507 0.15437 0.277749 0.0240538)
(-0.211884 0.0343893 -0.0433692 0.168906 0.374501 0.0429787)
(-0.205575 -0.0459849 -0.20146 0.21928 0.389441 -0.0137045)
(-0.131633 -0.131593 -0.2768 0.265241 0.319274 -0.133608)
(-0.00368139 -0.182566 -0.245956 0.272179 0.202806 -0.268498)
(0.132869 -0.182041 -0.149852 0.234065 0.0827675 -0.366934)
(0.238557 -0.145415 0.00430436 0.1739 -0.0294256 -0.412457)
(0.212073 -0.064022 0.337283 0.140438 -0.162209 -0.352511)
(-0.159391 0.16242 0.0914493 0.155529 0.131569 0.00386191)
(-0.107645 0.0896882 0.28401 0.0898291 0.328755 0.0178156)
(-0.14747 0.0483547 0.210771 0.042411 0.433172 0.105059)
(-0.197638 0.0174134 0.010643 0.0279647 0.504007 0.169673)
(-0.212581 -0.0383488 -0.233646 0.0678609 0.509448 0.14472)
(-0.155501 -0.114785 -0.378557 0.130706 0.438588 0.0247953)
(-0.0308847 -0.174703 -0.369818 0.171139 0.313606 -0.140255)
(0.120278 -0.1859 -0.257779 0.169866 0.182175 -0.290144)
(0.247616 -0.152314 -0.0853564 0.138315 0.0736038 -0.385931)
(0.233682 -0.077512 0.247694 0.132906 -0.0368194 -0.366588)
(-0.129147 0.153085 0.330646 0.0602083 0.266097 0.0689392)
(-0.100977 0.0531431 0.405953 0.00455588 0.382666 0.0964213)
(-0.150206 0.00146857 0.278418 -0.0497194 0.447091 0.199925)
(-0.199024 -0.0170233 0.0323153 -0.0840573 0.483913 0.283082)
(-0.212634 -0.0445273 -0.275271 -0.0646432 0.474669 0.277278)
(-0.1615 -0.0976766 -0.479648 -0.00244275 0.418717 0.163943)
(-0.0396645 -0.153752 -0.499258 0.0513973 0.318642 -0.0117328)
(0.120766 -0.17258 -0.371447 0.0759149 0.200643 -0.196681)
(0.26519 -0.144435 -0.163693 0.0755759 0.103424 -0.340766)
(0.260731 -0.0756368 0.190952 0.0976543 0.0236364 -0.358385)
(-0.119886 0.137562 0.475902 -0.0542388 0.279697 0.174125)
(-0.119514 0.0203041 0.48403 -0.105072 0.338866 0.224585)
(-0.179795 -0.0353611 0.311072 -0.147561 0.372841 0.327356)
(-0.218412 -0.0418565 0.0201713 -0.181789 0.371969 0.400201)
(-0.21472 -0.0488991 -0.325777 -0.173943 0.339685 0.388663)
(-0.15865 -0.0798096 -0.561389 -0.121728 0.294885 0.280378)
(-0.0335577 -0.122295 -0.60409 -0.0627211 0.235143 0.0962788)
(0.13344 -0.140157 -0.469775 -0.0230632 0.159709 -0.110376)
(0.288773 -0.117984 -0.22826 0.00174893 0.0965204 -0.290522)
(0.288575 -0.0615751 0.163901 0.0481173 0.0580331 -0.336692)
(-0.119479 0.107398 0.548757 -0.171479 0.17141 0.290958)
(-0.148252 -0.00798919 0.532905 -0.212357 0.180742 0.360609)
(-0.224626 -0.0510527 0.317204 -0.235563 0.187696 0.460188)
(-0.256197 -0.0456796 -0.0156979 -0.258614 0.161592 0.514811)
(-0.230397 -0.0391675 -0.378665 -0.244755 0.121839 0.475151)
(-0.154136 -0.0541314 -0.620224 -0.201108 0.095306 0.355244)
(-0.0172318 -0.0789045 -0.669666 -0.148095 0.0814625 0.165327)
(0.155149 -0.0892436 -0.529846 -0.104873 0.0698827 -0.0502755)
(0.314499 -0.0714194 -0.263769 -0.0652098 0.0631224 -0.24929)
(0.312276 -0.0336148 0.170715 -0.00251151 0.0794931 -0.309764)
(-0.116433 0.0680012 0.537076 -0.261453 -0.0115559 0.377886)
(-0.169043 -0.0305746 0.548202 -0.283914 -0.0732784 0.452957)
(-0.258564 -0.0538556 0.308268 -0.286542 -0.0931638 0.545106)
(-0.286169 -0.0358627 -0.0520827 -0.291531 -0.127418 0.577699)
(-0.244534 -0.01736 -0.414551 -0.269531 -0.150802 0.514065)
(-0.144071 -0.017061 -0.645542 -0.235244 -0.142731 0.379316)
(0.00685589 -0.0228647 -0.683506 -0.196705 -0.101252 0.189849)
(0.182411 -0.0220735 -0.533915 -0.156998 -0.0375652 -0.0254134)
(0.339466 -0.00789636 -0.253449 -0.112234 0.0252086 -0.227232)
(0.328046 0.00299717 0.221065 -0.0454726 0.105411 -0.282573)
(-0.107123 0.0243917 0.424219 -0.298838 -0.166787 0.40596)
(-0.170104 -0.050165 0.516282 -0.305995 -0.33116 0.476099)
(-0.262166 -0.0518825 0.286479 -0.286658 -0.398876 0.548824)
(-0.28656 -0.0191519 -0.0774996 -0.273549 -0.437344 0.560109)
(-0.236422 0.0135434 -0.421095 -0.253492 -0.430005 0.489915)
(-0.119072 0.0342469 -0.623494 -0.230959 -0.370561 0.350031)
(0.0409758 0.0499195 -0.632325 -0.203709 -0.25431 0.162733)
(0.213073 0.0634291 -0.46969 -0.168585 -0.113408 -0.0444884)
(0.358743 0.0704104 -0.186388 -0.128202 0.0165277 -0.230541)
(0.332805 0.0410948 0.317391 -0.0746783 0.162198 -0.258127)
(-0.109102 -0.0148514 0.181302 -0.258305 -0.175018 0.367407)
(-0.164871 -0.0663642 0.386323 -0.255628 -0.46709 0.420499)
(-0.243598 -0.0451831 0.214639 -0.221667 -0.609588 0.465265)
(-0.258713 0.00430253 -0.0981237 -0.196409 -0.658868 0.455122)
(-0.199437 0.0595871 -0.383524 -0.180023 -0.613448 0.37946)
(-0.0762168 0.109699 -0.524983 -0.165587 -0.482719 0.241803)
(0.0821049 0.149091 -0.491667 -0.147464 -0.290317 0.0653591)
(0.242506 0.169857 -0.327493 -0.125446 -0.0874317 -0.117059)
(0.360093 0.157105 -0.0508163 -0.108204 0.0995235 -0.251889)
(0.322925 0.0762906 0.454478 -0.094248 0.300198 -0.228677)
(-0.127926 0.0267664 -0.198412 -0.145384 0.143169 0.27331)
(-0.163947 -0.0382197 0.0805704 -0.162119 -0.225961 0.326065)
(-0.195984 -0.00241546 0.0376325 -0.125838 -0.458503 0.321822)
(-0.182106 0.0600268 -0.140587 -0.0970349 -0.533863 0.279141)
(-0.1079 0.134541 -0.292799 -0.0826904 -0.468005 0.19059)
(0.0180155 0.205042 -0.337951 -0.0797711 -0.290659 0.0617555)
(0.165432 0.250744 -0.261276 -0.0857047 -0.0494642 -0.0797273)
(0.283064 0.24506 -0.084721 -0.0979943 0.19961 -0.185069)
(0.336734 0.183546 0.176097 -0.117181 0.427305 -0.219553)
(0.281398 0.043417 0.589616 -0.124412 0.60971 -0.156986)
(0.191548 -0.169951 -0.443548 -0.0305359 -0.545481 -0.161012)
(0.282087 0.0248108 -0.106661 -0.0779384 -0.452268 -0.204148)
(0.189908 0.139384 -0.0977266 -0.0269509 -0.234432 -0.162957)
(0.0472455 0.152739 -0.287788 0.070349 0.0171058 -0.117594)
(-0.0907391 0.0806177 -0.430601 0.205409 0.13799 -0.11467)
(-0.179132 -0.00178618 -0.416822 0.332652 0.0924779 -0.15352)
(-0.175006 -0.0628464 -0.238819 0.387311 -0.0915864 -0.212305)
(-0.0826389 -0.0728959 0.00707697 0.333211 -0.314048 -0.250572)
(0.0305572 -0.0396047 0.266404 0.219649 -0.505229 -0.250206)
(0.0646982 0.0658847 0.684246 0.128015 -0.645598 -0.192713)
(0.134043 -0.155173 -0.319154 0.10299 -0.161655 -0.237033)
(0.279602 -0.0194909 0.133895 0.0139157 -0.0359408 -0.293518)
(0.22325 0.0880819 0.211766 -0.0161045 0.206159 -0.207145)
(0.103629 0.103103 -0.0539849 -0.00333158 0.457321 -0.100297)
(-0.0420804 0.0465036 -0.380197 0.0787648 0.568038 -0.0366844)
(-0.166335 -0.0307108 -0.5342 0.210526 0.538508 -0.0441914)
(-0.209413 -0.102752 -0.460698 0.329599 0.403613 -0.120185)
(-0.14865 -0.141825 -0.243875 0.379294 0.213338 -0.230644)
(-0.0226293 -0.135569 0.0450912 0.338468 0.0191334 -0.315838)
(0.0268744 -0.0490652 0.51716 0.237701 -0.181752 -0.264575)
(0.0937105 -0.152193 -0.180608 0.157604 0.120987 -0.251315)
(0.218269 -0.0855364 0.258068 0.0517681 0.190008 -0.270037)
(0.187662 -0.0183024 0.393599 -0.0374991 0.331474 -0.150163)
(0.145606 0.00362067 0.118548 -0.102626 0.502466 -0.0429799)
(0.0481172 -0.013253 -0.330988 -0.0849501 0.599799 0.0368329)
(-0.0793539 -0.0470648 -0.605002 0.0222473 0.595723 0.0571066)
(-0.153174 -0.10116 -0.616608 0.162537 0.525816 -0.00936313)
(-0.117583 -0.153272 -0.440837 0.254797 0.388199 -0.137215)
(-0.00115166 -0.165408 -0.145651 0.26393 0.212694 -0.262778)
(0.0448204 -0.090274 0.367577 0.220655 0.0254997 -0.265475)
(0.0671356 -0.117435 -0.0239474 0.120818 0.382461 -0.187954)
(0.131166 -0.121249 0.323461 0.0286331 0.437396 -0.159799)
(0.0897584 -0.079454 0.461532 -0.0624063 0.475579 -0.0273521)
(0.0998209 -0.0462582 0.19611 -0.161363 0.506313 0.0615425)
(0.0760438 -0.0405355 -0.299929 -0.18647 0.534917 0.110426)
(-0.0167511 -0.04506 -0.64028 -0.11122 0.538344 0.127971)
(-0.0841319 -0.0792615 -0.715689 0.0251506 0.487129 0.0589813)
(-0.0540276 -0.140356 -0.59697 0.132604 0.397021 -0.0785767)
(0.0510629 -0.169853 -0.310397 0.15887 0.258224 -0.209933)
(0.0899265 -0.116641 0.260145 0.156616 0.119049 -0.246542)
(0.033586 -0.109064 0.15116 0.0311636 0.524195 -0.0647496)
(0.041922 -0.145653 0.372914 -0.0277199 0.592276 -0.0142021)
(-0.00108835 -0.0948059 0.426434 -0.0935981 0.575265 0.0946865)
(0.029742 -0.0442323 0.158197 -0.191409 0.511372 0.161667)
(0.0369492 -0.0220433 -0.300497 -0.230895 0.445312 0.193946)
(-0.0166985 -0.014566 -0.674416 -0.176174 0.411977 0.192872)
(-0.0488033 -0.0406058 -0.807701 -0.0640135 0.358439 0.112817)
(0.00733145 -0.108342 -0.719559 0.0354204 0.308382 -0.0427519)
(0.113822 -0.155083 -0.437392 0.0498594 0.227778 -0.163681)
(0.148587 -0.129992 0.194232 0.0606935 0.160653 -0.20928)
(-0.0370866 -0.114913 0.317373 -0.0409584 0.463199 0.078045)
(-0.0439567 -0.159149 0.428139 -0.0559407 0.52468 0.0998973)
(-0.0782217 -0.0963453 0.377738 -0.102058 0.4887 0.18028)
(-0.0567747 -0.0366364 0.0549586 -0.18393 0.399878 0.240705)
(-0.0455692 0.00163585 -0.391189 -0.208419 0.273533 0.253988)
(-0.0644042 0.0193262 -0.73534 -0.162062 0.187797 0.226467)
(-0.0491643 -0.00368493 -0.868943 -0.0842102 0.16955 0.133374)
(0.0490609 -0.0731034 -0.79824 -0.0304978 0.162581 -0.0185631)
(0.173129 -0.129744 -0.517511 -0.0476175 0.148234 -0.125511)
(0.206234 -0.128665 0.180363 -0.0419645 0.167359 -0.16427)
(-0.115898 -0.100351 0.45688 -0.0926416 0.199859 0.20854)
(-0.12224 -0.160531 0.481322 -0.0689928 0.250134 0.191233)
(-0.167665 -0.103898 0.335573 -0.0894307 0.185713 0.257096)
(-0.172299 -0.0439956 -0.0551172 -0.138722 0.0830708 0.311021)
(-0.148058 0.00970872 -0.492396 -0.129173 -0.0149964 0.277231)
(-0.132039 0.0354343 -0.783739 -0.0908498 -0.070642 0.222889)
(-0.0643102 0.0167745 -0.894744 -0.0635153 -0.0517484 0.127825)
(0.0787448 -0.0444732 -0.838623 -0.0798143 -0.0199882 0.00106958)
(0.227386 -0.0968434 -0.549739 -0.131604 0.0391441 -0.0957821)
(0.256225 -0.113297 0.227255 -0.129958 0.156019 -0.126267)
(-0.148207 -0.0660054 0.549248 -0.147416 -0.174083 0.295623)
(-0.179831 -0.148595 0.512406 -0.0815711 -0.16893 0.261402)
(-0.249146 -0.105665 0.268867 -0.0516607 -0.268629 0.300806)
(-0.264008 -0.0489443 -0.121793 -0.042552 -0.36196 0.30656)
(-0.241823 0.00726726 -0.524185 -0.0230993 -0.382927 0.264922)
(-0.189651 0.0384818 -0.79828 -0.0135333 -0.365623 0.203184)
(-0.0647049 0.0308735 -0.902142 -0.0517528 -0.310695 0.116458)
(0.113163 -0.00994684 -0.836258 -0.127745 -0.220502 0.0145823)
(0.28257 -0.0457095 -0.521305 -0.196313 -0.0606667 -0.0862577)
(0.296777 -0.0814056 0.335965 -0.182864 0.171646 -0.113914)
(-0.122586 -0.0327696 0.565629 -0.201618 -0.505196 0.324203)
(-0.204978 -0.12602 0.493414 -0.0899164 -0.608992 0.294894)
(-0.295903 -0.0910819 0.192108 -0.011121 -0.71073 0.307024)
(-0.321092 -0.0392694 -0.156585 0.0331465 -0.777184 0.287946)
(-0.293284 0.0176685 -0.510962 0.0466502 -0.773488 0.246634)
(-0.19476 0.0586545 -0.769612 0.00953108 -0.699371 0.185228)
(-0.0227305 0.0709417 -0.85698 -0.0731073 -0.562945 0.0958378)
(0.165167 0.0611133 -0.743124 -0.163161 -0.34868 -0.00200559)
(0.337145 0.0421676 -0.383804 -0.221854 -0.0421964 -0.11529)
(0.314802 -0.0255421 0.49807 -0.190631 0.30722 -0.12417)
(-0.0892 0.0450211 0.374155 -0.227902 -0.503488 0.317102)
(-0.203111 -0.0601465 0.355567 -0.111825 -0.755534 0.314936)
(-0.297841 -0.0316975 0.0843832 -0.0255216 -0.885353 0.323363)
(-0.312065 0.0127262 -0.209246 0.0187957 -0.958538 0.29327)
(-0.251725 0.0674613 -0.486803 0.0175675 -0.94526 0.234157)
(-0.114778 0.12455 -0.66193 -0.0318433 -0.804248 0.146621)
(0.0688673 0.164752 -0.652939 -0.11091 -0.534997 0.0420426)
(0.250805 0.171941 -0.445141 -0.183754 -0.137554 -0.0670517)
(0.361321 0.119345 -0.0227004 -0.212236 0.344346 -0.149085)
(0.291927 -0.0260963 0.659847 -0.17196 0.709564 -0.119966)
(0.373804 -0.323383 -0.462045 -0.206175 -0.573319 -0.167629)
(0.56254 -0.0822545 -0.0414714 -0.282702 -0.52196 -0.279839)
(0.513773 0.0272369 0.0438813 -0.234513 -0.375007 -0.27926)
(0.391749 0.0245447 -0.173798 -0.157798 -0.0595912 -0.23395)
(0.103908 0.00521531 -0.423309 -0.0322871 0.222205 -0.0716205)
(-0.156384 0.00647592 -0.496558 0.0720399 0.259362 0.0843441)
(-0.27135 0.00631306 -0.398351 0.128402 0.0588776 0.142948)
(-0.192373 -0.000937056 -0.140087 0.1229 -0.305195 0.0694726)
(0.00239622 -0.00170061 0.207143 0.0557325 -0.553819 -0.0581288)
(0.0729604 0.120214 0.675741 -0.000440843 -0.630338 -0.0725196)
(0.282829 -0.294591 -0.433915 -0.103807 -0.207314 -0.179022)
(0.457059 -0.0975169 0.0728627 -0.179162 -0.0566946 -0.277897)
(0.434688 -0.0126415 0.293477 -0.180011 0.145857 -0.254676)
(0.419198 -0.0494197 0.168698 -0.192623 0.355323 -0.226575)
(0.26845 -0.0778078 -0.218049 -0.143657 0.547117 -0.124792)
(0.0203154 -0.0529987 -0.536431 -0.0551361 0.602653 0.0348207)
(-0.164876 -0.0200572 -0.64156 0.0279476 0.511732 0.136928)
(-0.192651 -0.017031 -0.498387 0.111578 0.305988 0.0810731)
(-0.0750267 -0.0473145 -0.0976106 0.18159 0.0738948 -0.106563)
(0.0210546 0.00721051 0.498416 0.136215 -0.137656 -0.15727)
(0.219647 -0.271663 -0.329684 -0.0870015 0.0596097 -0.132646)
(0.2629 -0.0839244 0.292406 -0.140044 0.359182 -0.122856)
(0.23149 -0.00797458 0.458004 -0.155242 0.611227 -0.0762486)
(0.339985 -0.0468511 0.259598 -0.24786 0.660928 -0.092125)
(0.361527 -0.0897671 -0.147887 -0.289109 0.640752 -0.0724173)
(0.192004 -0.069248 -0.553731 -0.233442 0.610694 0.0414381)
(-0.00834001 -0.010507 -0.755844 -0.143189 0.481233 0.151529)
(-0.0937477 0.0219302 -0.666669 -0.0128208 0.328373 0.106568)
(-0.0179558 -0.00573375 -0.29468 0.0940253 0.230497 -0.0760696)
(0.0454445 -0.00298004 0.335456 0.144431 0.0708268 -0.189876)
(0.165833 -0.251523 -0.11727 -0.0770943 0.316155 -0.088739)
(0.115056 -0.0534769 0.565235 -0.10835 0.635785 -0.00670637)
(0.11736 0.0468486 0.607258 -0.148298 0.799496 0.0309383)
(0.268408 0.043689 0.23521 -0.270975 0.79945 0.00256762)
(0.338755 0.000672989 -0.223659 -0.334559 0.705251 -0.00419563)
(0.220895 -0.0101315 -0.670077 -0.307069 0.600465 0.0861747)
(0.0504093 0.0471332 -0.915315 -0.226393 0.406976 0.175984)
(-0.0392485 0.0920819 -0.760366 -0.0777098 0.198409 0.116958)
(0.0278381 0.0532643 -0.34576 0.035744 0.21107 -0.0635821)
(0.0962163 0.00393221 0.265282 0.117045 0.174343 -0.213261)
(0.101161 -0.259496 0.103652 -0.00415466 0.514541 -0.0970061)
(0.0410611 -0.041284 0.725142 -0.0248922 0.680722 -0.0161689)
(0.0761759 0.081815 0.642813 -0.101688 0.696424 0.0255121)
(0.208489 0.102993 0.215808 -0.241503 0.672148 0.0330144)
(0.256168 0.0757718 -0.284942 -0.3064 0.586781 0.050232)
(0.166173 0.0581067 -0.786926 -0.283982 0.439771 0.117809)
(0.0320477 0.114905 -1.09131 -0.199508 0.268304 0.16746)
(-0.0384598 0.159484 -0.856339 -0.0593314 0.106251 0.0977912)
(0.0424999 0.113685 -0.328444 0.0281222 0.165242 -0.0706222)
(0.126026 0.0190683 0.286389 0.0831845 0.208315 -0.209211)
(0.00714194 -0.270939 0.19686 0.145577 0.569821 -0.152719)
(0.00485571 -0.0504551 0.732419 0.100962 0.539745 -0.105818)
(0.056304 0.0620615 0.617053 -0.0134088 0.481225 -0.0428951)
(0.13484 0.0946154 0.173787 -0.15082 0.426815 0.0159801)
(0.145314 0.0988842 -0.401579 -0.207356 0.28293 0.062042)
(0.0800176 0.0977014 -0.898996 -0.170919 0.101604 0.0909011)
(-0.0278398 0.158653 -1.16142 -0.0663181 0.0119265 0.0941579)
(-0.0743347 0.193598 -0.861316 0.0519166 0.0474907 0.0224181)
(0.0316342 0.135648 -0.291812 0.0899137 0.12799 -0.121548)
(0.122737 0.0207521 0.347119 0.0801329 0.198901 -0.20287)
(-0.104598 -0.265897 0.193402 0.319396 0.434781 -0.214798)
(-0.0230409 -0.0854214 0.677474 0.223791 0.295234 -0.20075)
(0.0131921 -0.00252752 0.54798 0.102692 0.176478 -0.115884)
(0.0433868 0.038277 0.0528415 0.0146969 0.0423773 -0.0580837)
(0.024012 0.0682404 -0.548779 -0.0142422 -0.125975 -0.00976987)
(-0.0248698 0.0983122 -0.95719 0.0341518 -0.233985 -0.00928198)
(-0.11943 0.152013 -1.09236 0.156695 -0.197947 -0.0372643)
(-0.131171 0.174089 -0.771768 0.224889 0.00116004 -0.0937182)
(0.0153501 0.106868 -0.271047 0.188023 0.0724244 -0.203373)
(0.105971 -0.0114863 0.398978 0.0968428 0.142993 -0.202814)
(-0.208407 -0.237103 0.191064 0.431461 0.165913 -0.223053)
(-0.0752633 -0.128187 0.571167 0.317372 -0.0190383 -0.242108)
(-0.0737087 -0.0783401 0.393279 0.24534 -0.220254 -0.171631)
(-0.0906727 -0.0461022 -0.118823 0.221412 -0.402944 -0.130739)
(-0.11027 0.0120677 -0.610057 0.231455 -0.468588 -0.121185)
(-0.161185 0.0642339 -0.910102 0.302211 -0.455436 -0.141025)
(-0.221596 0.105181 -0.926925 0.401563 -0.321911 -0.179967)
(-0.163592 0.109695 -0.667731 0.375625 -0.0860267 -0.212033)
(0.0351549 0.0453397 -0.311758 0.233246 -0.0407729 -0.268401)
(0.10273 -0.0676437 0.424077 0.0910228 0.0761446 -0.193752)
(-0.280259 -0.165871 0.25624 0.417832 -0.190409 -0.137573)
(-0.163109 -0.150269 0.426803 0.367296 -0.35991 -0.204187)
(-0.19443 -0.116009 0.180767 0.36312 -0.554625 -0.16869)
(-0.229434 -0.0830578 -0.233195 0.393172 -0.678583 -0.163738)
(-0.262625 -0.023729 -0.591803 0.447527 -0.680681 -0.184902)
(-0.291868 0.0352024 -0.797553 0.506683 -0.601015 -0.214814)
(-0.253985 0.0732982 -0.776018 0.492045 -0.421198 -0.238059)
(-0.0974295 0.0647915 -0.621293 0.341525 -0.26071 -0.244096)
(0.118037 0.00692356 -0.353211 0.137945 -0.121208 -0.255981)
(0.123801 -0.110975 0.474215 0.0178391 0.150268 -0.14164)
(-0.29734 -0.00968596 0.300847 0.295525 -0.415151 0.00181419)
(-0.288624 -0.0760644 0.276934 0.352658 -0.522751 -0.0640343)
(-0.328459 -0.0392657 -0.00689482 0.366448 -0.629384 -0.0379889)
(-0.350196 -0.0130695 -0.323454 0.393224 -0.68492 -0.043028)
(-0.3539 0.0246175 -0.576568 0.424747 -0.682216 -0.0708465)
(-0.298861 0.0615462 -0.702537 0.406355 -0.625666 -0.107493)
(-0.157692 0.0890404 -0.695742 0.280196 -0.459257 -0.122504)
(0.0229859 0.0792759 -0.54264 0.0931551 -0.23066 -0.116141)
(0.201819 0.00395775 -0.141386 -0.0746253 0.20789 -0.127193)
(0.149817 -0.168593 0.592727 -0.116589 0.589623 -0.0332272)
(-0.0106489 -0.376809 -0.684426 -0.291316 -0.40339 0.301965)
(0.226305 -0.23149 -0.324571 -0.28102 -0.417633 0.0547158)
(0.362926 -0.219324 -0.130669 -0.227246 -0.312281 -0.13568)
(0.459012 -0.258973 0.0451547 -0.203924 -0.225849 -0.255088)
(0.441128 -0.250334 0.131165 -0.19491 -0.203367 -0.246219)
(0.31795 -0.183191 -0.0492012 -0.184734 -0.128137 -0.133216)
(0.143598 -0.0927202 -0.393541 -0.172856 -0.0409813 0.0292584)
(0.0602158 -0.0342759 -0.544396 -0.187573 -0.164113 0.127357)
(0.0717861 -0.00726861 -0.205665 -0.198363 -0.511813 0.126576)
(0.00565686 0.105721 0.660948 -0.113358 -0.773798 0.107701)
(-0.123501 -0.228832 -0.626019 -0.245424 0.232799 0.368925)
(0.0244929 -0.091539 -0.0663222 -0.20776 0.528116 0.183267)
(0.153884 -0.0512323 0.102826 -0.190029 0.708027 0.0361452)
(0.390918 -0.0815932 0.0254327 -0.256009 0.714046 -0.134909)
(0.572684 -0.117752 -0.0165638 -0.322007 0.530434 -0.250677)
(0.534888 -0.123187 -0.0546948 -0.320666 0.367471 -0.214222)
(0.329311 -0.0942857 -0.378461 -0.274772 0.327271 -0.0545388)
(0.161862 -0.0467464 -0.711086 -0.257027 0.229205 0.0951653)
(0.127677 -0.00453331 -0.52282 -0.247137 0.0131896 0.11946)
(0.0745336 0.0467429 0.499208 -0.156819 -0.350825 0.0822854)
(-0.085935 -0.147747 -0.277464 -0.297716 0.453111 0.383651)
(0.0111358 0.0375757 0.250867 -0.201441 0.817524 0.190305)
(0.121596 0.123277 0.288782 -0.182603 0.962544 0.0610069)
(0.356744 0.134791 0.0260657 -0.278778 0.965604 -0.0779657)
(0.550491 0.0958291 -0.182657 -0.358671 0.874521 -0.191821)
(0.540393 0.0237272 -0.28252 -0.369361 0.753144 -0.171032)
(0.366823 -0.0236026 -0.556224 -0.358254 0.573609 -0.00856886)
(0.210217 0.0141212 -0.84951 -0.352678 0.327946 0.142461)
(0.153285 0.0886182 -0.678992 -0.298167 0.134404 0.144882)
(0.0837574 0.111973 0.329245 -0.186844 -0.200101 0.103087)
(0.0172664 -0.0829035 0.138188 -0.288693 0.359968 0.271426)
(0.13539 0.140162 0.476891 -0.164138 0.645934 0.0287476)
(0.235152 0.23709 0.396428 -0.143163 0.742604 -0.0919893)
(0.382605 0.265752 0.0817596 -0.228738 0.805487 -0.153867)
(0.458947 0.234598 -0.149454 -0.286471 0.847234 -0.172476)
(0.396604 0.134436 -0.347202 -0.310069 0.831722 -0.0865349)
(0.258141 0.0481226 -0.771828 -0.335187 0.623051 0.0770452)
(0.170601 0.0940418 -1.05838 -0.329546 0.327894 0.158945)
(0.14088 0.202589 -0.835734 -0.251848 0.134455 0.110969)
(0.0652494 0.209487 0.178939 -0.129962 -0.0858985 0.0647124)
(0.112413 -0.0240694 0.400481 -0.15653 0.149656 0.044117)
(0.286784 0.200737 0.619588 -0.0833097 0.321792 -0.203475)
(0.35028 0.251556 0.541423 -0.094833 0.455507 -0.255447)
(0.369277 0.268379 0.243282 -0.166686 0.614861 -0.202591)
(0.326508 0.256419 -0.079039 -0.207017 0.686606 -0.119491)
(0.254283 0.173741 -0.470085 -0.244688 0.564735 -0.00959442)
(0.171449 0.108344 -0.978211 -0.268876 0.272812 0.0974265)
(0.102487 0.183728 -1.19865 -0.224586 0.0604184 0.122099)
(0.0708515 0.309779 -0.898049 -0.121877 -0.0291611 0.0510256)
(0.00319371 0.279045 0.14847 0.00124525 -0.0340752 -0.00443897)
(0.134967 -0.0146543 0.446698 0.0638297 -0.0194441 -0.198797)
(0.36072 0.192156 0.726488 0.00488274 0.0849635 -0.365603)
(0.39678 0.184482 0.711421 -0.0588846 0.250998 -0.337895)
(0.340168 0.189589 0.365762 -0.100274 0.353315 -0.239894)
(0.256838 0.220588 -0.183327 -0.131773 0.285925 -0.125065)
(0.196182 0.176388 -0.714005 -0.159332 0.00162412 -0.0368499)
(0.137825 0.161461 -1.1282 -0.146933 -0.244342 0.00910796)
(0.028562 0.263038 -1.19815 -0.0387903 -0.31322 0.0102283)
(-0.0513128 0.385179 -0.791087 0.0926932 -0.247763 -0.0413805)
(-0.0994036 0.288998 0.294701 0.178596 -0.0301824 -0.0791922)
(0.0665791 -0.0575531 0.350849 0.322533 -0.0473887 -0.389112)
(0.351462 0.135588 0.800999 0.119509 -0.0187632 -0.470971)
(0.400177 0.0890704 0.762782 0.0268487 0.0112261 -0.427026)
(0.339815 0.0847104 0.267888 0.0231943 -0.104851 -0.363009)
(0.239727 0.130613 -0.416525 0.0135373 -0.317348 -0.253264)
(0.19067 0.142535 -0.881121 0.00427406 -0.533798 -0.194944)
(0.0976521 0.177322 -1.1349 0.0730992 -0.648342 -0.170751)
(-0.0861547 0.28195 -1.05464 0.236755 -0.558959 -0.150601)
(-0.207977 0.373517 -0.545176 0.378035 -0.355523 -0.170058)
(-0.198219 0.221386 0.544572 0.343332 0.0214079 -0.145113)
(-0.0671632 -0.102228 0.151118 0.564319 0.0504669 -0.497156)
(0.273749 0.0554136 0.729151 0.274357 -0.112296 -0.548106)
(0.350489 -0.00865075 0.590818 0.185057 -0.306276 -0.535547)
(0.29866 -0.0321572 0.00259769 0.206119 -0.53405 -0.504779)
(0.221233 0.0144249 -0.593513 0.220978 -0.690836 -0.442211)
(0.145976 0.0545121 -0.945967 0.265917 -0.796526 -0.411893)
(-0.0303256 0.1074 -1.01125 0.404335 -0.76992 -0.374009)