/*--------------------------------*- C++ -*----------------------------------*\
| =========                 |                                                 |
| \\      /  F ield         | OpenFOAM: The Open Source CFD Toolbox           |
|  \\    /   O peration     | Version:  2406                                  |
|   \\  /    A nd           | Website:  www.openfoam.com                      |
|    \\/     M anipulation  |                                                 |
\*---------------------------------------------------------------------------*/
FoamFile
{
    version     2.0;
    format      ascii;
    arch        "LSB;label=32;scalar=64";
    class       volSymmTensorField;
    location    "0.2";
    object      turbulenceProperties:R;
}
// * * * * * * * * * * * * * * * * * * * * * * * * * * * * * * * * * * * * * //

dimensions      [0 2 -2 0 0 0 0];

internalField   uniform (0 -0 -0 0 -0 0);

boundaryField
{
    walls
    {
        type            calculated;
        value           nonuniform List<symmTensor> 
2000
(
(-8.48167e-08 1.26089e-07 7.89145e-07 -1.31492e-07 -6.72003e-07 2.16308e-07)
(-1.35701e-07 2.08505e-07 1.30246e-06 -1.64616e-07 -8.11742e-07 3.00317e-07)
(-2.66526e-07 2.57756e-07 1.90696e-06 -1.06324e-07 -8.05275e-07 3.7285e-07)
(-4.30274e-07 1.98825e-07 2.4528e-06 3.39062e-09 -5.99945e-07 4.26884e-07)
(-5.34646e-07 4.54282e-08 2.79917e-06 7.56754e-08 -2.23029e-07 4.5897e-07)
(-5.232e-07 -1.48756e-07 2.83569e-06 5.82732e-08 2.30755e-07 4.64927e-07)
(-3.99696e-07 -2.89587e-07 2.54875e-06 -4.65729e-08 6.2771e-07 4.46269e-07)
(-2.34808e-07 -3.12834e-07 2.01648e-06 -1.65016e-07 8.5411e-07 3.99823e-07)
(-9.96929e-08 -2.44554e-07 1.389e-06 -2.29578e-07 8.66484e-07 3.29271e-07)
(-6.20862e-08 -1.39119e-07 8.51104e-07 -1.79704e-07 7.23182e-07 2.4179e-07)
(2.71716e-07 -1.65274e-08 4.77428e-06 -1.21187e-07 -4.09928e-06 -1.50529e-07)
(5.24002e-07 9.97538e-08 9.53035e-06 -1.93921e-07 -5.9813e-06 -3.30081e-07)
(5.94365e-07 1.51109e-07 1.54204e-05 -1.73492e-08 -6.50798e-06 -5.77015e-07)
(5.21139e-07 -7.21005e-08 2.02828e-05 2.56512e-07 -4.91864e-06 -7.77651e-07)
(5.21873e-07 -4.47759e-07 2.26188e-05 3.26256e-07 -1.73567e-06 -8.48129e-07)
(6.59261e-07 -7.9276e-07 2.14906e-05 9.67848e-08 1.84452e-06 -7.56046e-07)
(7.99547e-07 -7.94384e-07 1.69047e-05 -2.78472e-07 4.30288e-06 -5.21075e-07)
(6.89642e-07 -4.53212e-07 1.04398e-05 -4.30638e-07 4.58142e-06 -2.59005e-07)
(3.67093e-07 -1.17504e-07 4.88943e-06 -2.80997e-07 3.17062e-06 -8.60961e-08)
(5.92372e-08 1.88917e-08 1.92292e-06 -3.48387e-08 1.66848e-06 -2.43985e-08)
(-7.50515e-07 -8.6173e-08 1.52975e-05 9.61989e-07 -1.32759e-05 -2.11474e-07)
(-1.12047e-06 -5.77414e-07 3.47136e-05 1.64241e-06 -2.1944e-05 -5.21932e-07)
(-1.25224e-06 -1.5777e-06 5.91263e-05 2.25571e-06 -2.50266e-05 -1.00346e-06)
(-9.64956e-07 -2.97199e-06 7.75198e-05 2.34378e-06 -1.86983e-05 -1.37882e-06)
(-5.8004e-08 -4.12288e-06 8.22449e-05 1.5106e-06 -5.99015e-06 -1.4526e-06)
(1.22056e-06 -4.49465e-06 7.0535e-05 -1.10821e-08 6.55253e-06 -1.20948e-06)
(2.13328e-06 -3.46339e-06 4.7223e-05 -1.36139e-06 1.25145e-05 -7.71883e-07)
(1.91463e-06 -1.64206e-06 2.40356e-05 -1.50752e-06 1.08538e-05 -4.07116e-07)
(1.09923e-06 -4.43861e-07 9.75889e-06 -9.12022e-07 6.43403e-06 -1.87211e-07)
(3.66136e-07 -3.55323e-09 4.04025e-06 -2.73226e-07 3.47168e-06 -9.29101e-08)
(-3.39815e-06 -6.19152e-07 3.04524e-05 3.61941e-06 -2.64383e-05 -2.21265e-07)
(-4.59864e-06 -2.35276e-06 6.82464e-05 4.98124e-06 -4.32984e-05 -3.82592e-07)
(-4.49636e-06 -4.54684e-06 0.000118648 5.34636e-06 -5.0532e-05 -8.50001e-07)
(-3.94832e-06 -8.11457e-06 0.000157473 5.44095e-06 -3.82821e-05 -1.49263e-06)
(-1.6185e-06 -1.19601e-05 0.000165426 3.45862e-06 -1.23284e-05 -1.84012e-06)
(2.57599e-06 -1.42368e-05 0.000141352 -7.97805e-07 1.26425e-05 -1.77818e-06)
(6.74749e-06 -1.24421e-05 0.000100567 -5.32463e-06 2.58132e-05 -1.42286e-06)
(8.20259e-06 -7.67524e-06 6.18545e-05 -7.103e-06 2.69528e-05 -1.09959e-06)
(7.32731e-06 -3.47244e-06 3.39374e-05 -6.66505e-06 2.16435e-05 -6.62262e-07)
(4.17743e-06 -5.57234e-07 1.74306e-05 -3.84885e-06 1.4922e-05 -3.28583e-07)
(-2.93342e-06 -3.83172e-07 4.52782e-05 3.11361e-06 -3.88009e-05 -1.80187e-07)
(-3.34592e-06 -1.50873e-06 8.97044e-05 3.45184e-06 -5.69948e-05 -1.05921e-07)
(-1.21016e-06 -8.94504e-07 0.000158853 1.3875e-06 -6.84746e-05 -1.77343e-07)
(-1.25488e-07 -1.98593e-07 0.00022784 9.93004e-07 -5.67957e-05 -8.67516e-07)
(-4.52344e-08 -1.08773e-06 0.000259145 1.73018e-06 -2.09835e-05 -1.68495e-06)
(1.12373e-06 -5.52409e-06 0.000240787 1.15996e-06 1.96741e-05 -2.2837e-06)
(4.93459e-06 -9.11875e-06 0.000190235 -2.69104e-06 4.6933e-05 -2.24355e-06)
(8.77359e-06 -8.64258e-06 0.000133045 -6.98625e-06 5.63576e-05 -1.78734e-06)
(1.05492e-05 -5.56479e-06 8.22716e-05 -9.55213e-06 5.14579e-05 -9.97092e-07)
(7.48286e-06 -1.39292e-06 4.3369e-05 -7.00957e-06 3.71615e-05 -4.73291e-07)
(5.39515e-07 3.26414e-07 7.71216e-05 -5.93557e-07 -6.57665e-05 5.40418e-08)
(4.44653e-06 2.56215e-06 0.000130945 -4.35935e-06 -8.25416e-05 -8.71742e-08)
(9.30701e-06 9.60473e-06 0.000202474 -9.05359e-06 -8.69814e-05 -2.5342e-07)
(1.01387e-05 1.96926e-05 0.000282035 -9.37394e-06 -7.09415e-05 -7.64765e-07)
(4.53499e-06 2.73555e-05 0.000337694 -3.23341e-06 -2.86909e-05 -1.30158e-06)
(-4.05771e-06 2.70967e-05 0.000341922 5.82033e-06 2.6571e-05 -1.76262e-06)
(-9.70269e-06 1.93028e-05 0.000292005 1.15001e-05 7.12984e-05 -1.79736e-06)
(-1.02632e-05 1.02035e-05 0.000211844 1.16122e-05 8.95438e-05 -1.34903e-06)
(-8.12081e-06 3.91544e-06 0.000133879 8.95904e-06 8.34873e-05 -8.38229e-07)
(-4.96163e-06 4.52215e-07 7.66877e-05 5.47859e-06 6.53982e-05 -5.16965e-07)
(1.82902e-05 2.68211e-06 9.76471e-05 -1.80166e-05 -8.47612e-05 -2.73551e-07)
(3.56237e-05 1.77261e-05 0.000195815 -3.44741e-05 -0.00012438 -1.14959e-06)
(4.24262e-05 4.20275e-05 0.000314836 -3.98401e-05 -0.000134458 -2.58603e-06)
(3.15761e-05 6.23404e-05 0.000414175 -2.82367e-05 -0.000101707 -3.33941e-06)
(9.69035e-06 6.81566e-05 0.000461382 -6.47209e-06 -3.62247e-05 -3.21827e-06)
(-1.09544e-05 5.69108e-05 0.000441097 1.36366e-05 3.68124e-05 -2.6822e-06)
(-2.05924e-05 3.57255e-05 0.000366541 2.26255e-05 9.12093e-05 -2.03305e-06)
(-1.85444e-05 1.59518e-05 0.000264772 1.97458e-05 0.000112928 -1.20138e-06)
(-1.2256e-05 4.74997e-06 0.000170192 1.26729e-05 0.000106612 -4.16927e-07)
(-7.06896e-06 4.01432e-07 0.00010367 7.0298e-06 8.80407e-05 3.9163e-08)
(4.24135e-05 6.76178e-06 0.000176176 -4.08007e-05 -0.000153035 -1.61281e-06)
(6.4803e-05 3.39396e-05 0.000371193 -6.1239e-05 -0.000233425 -3.56401e-06)
(5.6373e-05 5.79576e-05 0.000582714 -4.93799e-05 -0.000243992 -6.99314e-06)
(2.91334e-05 5.41954e-05 0.000719251 -1.93031e-05 -0.00017102 -9.83034e-06)
(1.02099e-05 3.48927e-05 0.000756615 4.15087e-08 -5.46791e-05 -1.02514e-05)
(2.45663e-06 1.99209e-05 0.000692944 5.76084e-06 6.148e-05 -8.21747e-06)
(-1.90815e-06 1.17584e-05 0.00055155 7.09822e-06 0.000140055 -5.19007e-06)
(-3.21606e-06 4.71568e-06 0.000377048 5.77843e-06 0.000163091 -2.56238e-06)
(-8.74726e-07 2.38393e-07 0.000220954 1.45543e-06 0.000140445 -5.80708e-07)
(-1.10218e-06 1.62135e-07 0.000115451 4.71583e-07 9.89386e-05 6.30597e-07)
(1.64552e-05 7.5017e-06 0.000278625 -1.45627e-05 -0.000240475 -1.89247e-06)
(-1.32109e-05 2.16962e-07 0.000561288 1.75819e-05 -0.000351647 -4.37098e-06)
(-3.91272e-05 -3.42416e-05 0.000887258 4.61728e-05 -0.000372797 -7.04563e-06)
(-3.91413e-05 -7.56503e-05 0.00115736 4.71582e-05 -0.000277317 -8.01686e-06)
(-1.40352e-05 -9.48525e-05 0.0012214 2.05357e-05 -8.71211e-05 -6.50052e-06)
(1.44882e-05 -7.97268e-05 0.00104023 -1.05393e-05 9.62493e-05 -3.94896e-06)
(2.3516e-05 -4.39507e-05 0.000736523 -2.18266e-05 0.000190715 -1.68944e-06)
(1.71071e-05 -1.90579e-05 0.000446438 -1.69222e-05 0.000195959 -1.84843e-07)
(1.07733e-05 -7.7599e-06 0.000219647 -1.17493e-05 0.000142696 9.76053e-07)
(2.57617e-06 -1.5431e-06 7.97709e-05 -3.94682e-06 7.03925e-05 1.37066e-06)
(2.6057e-06 5.80194e-06 0.000387254 -2.87067e-07 -0.000334677 -2.31864e-06)
(-3.85232e-05 -9.84393e-06 0.000796293 4.325e-05 -0.000502229 -4.72686e-06)
(-7.63556e-05 -6.16267e-05 0.00126903 8.32171e-05 -0.00053665 -6.86152e-06)
(-8.14468e-05 -0.000138734 0.00158721 8.90323e-05 -0.000381688 -7.58552e-06)
(-3.29511e-05 -0.000180481 0.00158837 3.90735e-05 -0.000115094 -6.12239e-06)
(2.67326e-05 -0.000145685 0.00133965 -2.293e-05 0.000120227 -3.80259e-06)
(3.70875e-05 -5.5299e-05 0.000974008 -3.3937e-05 0.000247906 -3.15056e-06)
(9.72583e-06 -4.77194e-06 0.000623186 -6.103e-06 0.000270524 -3.62283e-06)
(3.59186e-06 -4.47006e-06 0.000311272 -1.56776e-06 0.000201374 -2.02411e-06)
(7.46873e-06 -3.56254e-06 0.000106639 -7.11811e-06 9.49017e-05 -3.50622e-07)
(3.06883e-06 3.96086e-06 0.000600652 -1.14533e-06 -0.000517019 -1.9235e-06)
(-1.16137e-05 6.04709e-06 0.00116974 1.34077e-05 -0.000735371 -1.79408e-06)
(-3.8226e-05 -1.41092e-05 0.00181435 4.25567e-05 -0.000767964 -4.33067e-06)
(-6.23186e-05 -8.38623e-05 0.00230545 7.24885e-05 -0.00056184 -1.01699e-05)
(-3.69589e-05 -0.000166477 0.0024534 5.01147e-05 -0.000190108 -1.31557e-05)
(3.23957e-05 -0.000162951 0.00222184 -2.06705e-05 0.000188338 -1.17252e-05)
(4.21955e-05 -4.12185e-05 0.00169808 -3.19127e-05 0.000426325 -1.02829e-05)
(-1.50897e-05 3.38666e-05 0.00112127 2.56527e-05 0.000482663 -1.0563e-05)
(-2.81942e-05 1.42687e-05 0.000610952 3.57981e-05 0.000389743 -7.6039e-06)
(2.94516e-06 -3.01562e-06 0.000249687 1.92807e-06 0.000218313 -4.87323e-06)
(-5.89089e-06 -3.16179e-06 0.000781105 7.94012e-06 -0.000671326 -2.04923e-06)
(8.29338e-06 5.1367e-06 0.00148099 -6.61055e-06 -0.000930647 -1.68282e-06)
(9.06191e-06 1.33691e-05 0.00231356 -4.3473e-06 -0.000982793 -4.71461e-06)
(-3.10189e-06 2.15364e-06 0.00307524 1.25523e-05 -0.000759326 -9.45045e-06)
(-6.95499e-06 -3.25118e-05 0.00352606 1.90377e-05 -0.000288326 -1.20828e-05)
(1.37878e-05 -2.45858e-05 0.00345842 -2.39028e-06 0.000276709 -1.13975e-05)
(-6.37423e-06 6.7657e-05 0.00287848 1.89632e-05 0.000710289 -1.2589e-05)
(-8.82261e-05 0.000119809 0.00201965 0.000102738 0.000863582 -1.45118e-05)
(-0.000106617 6.07038e-05 0.00115202 0.000119095 0.000732129 -1.2478e-05)
(-3.33872e-05 3.00373e-06 0.000498283 4.09366e-05 0.000432759 -7.54933e-06)
(3.59906e-05 -1.65374e-06 0.000841251 -3.46887e-05 -0.000724533 -1.30184e-06)
(8.85409e-05 3.68595e-05 0.00156833 -8.73568e-05 -0.000987413 -1.18408e-06)
(0.000107041 9.98623e-05 0.00247138 -0.000102616 -0.00105373 -4.42512e-06)
(8.12997e-05 0.000150384 0.003332 -7.30612e-05 -0.000828045 -8.23851e-06)
(3.18007e-05 0.000169679 0.00393185 -2.28199e-05 -0.000329412 -8.98082e-06)
(-2.06144e-05 0.000192078 0.00403789 2.73688e-05 0.000313472 -6.75438e-06)
(-9.46929e-05 0.000223097 0.00356419 0.000102516 0.00087137 -7.82312e-06)
(-0.000166369 0.00018583 0.00262788 0.000177588 0.00112174 -1.12189e-05)
(-0.000141979 7.56019e-05 0.00150627 0.000152434 0.000957701 -1.04548e-05)
(-5.63156e-05 7.96996e-06 0.000682203 6.35001e-05 0.000591446 -7.18452e-06)
(0.000111866 1.47565e-05 0.00071827 -0.000114872 -0.000624059 3.00567e-06)
(0.000213733 0.000107472 0.00151585 -0.000218839 -0.000962484 5.10554e-06)
(0.000251506 0.000253452 0.00262207 -0.000252649 -0.00112387 1.14271e-06)
(0.000191508 0.000378246 0.0037291 -0.00018832 -0.000926852 -3.18763e-06)
(6.52363e-05 0.000438942 0.00450799 -6.14094e-05 -0.000370626 -3.8269e-06)
(-7.5582e-05 0.000398038 0.00463502 7.77775e-05 0.000371878 -2.19546e-06)
(-0.000152541 0.000269194 0.00404904 0.000156848 0.00100047 -4.30754e-06)
(-0.00012918 0.000124752 0.00299264 0.000139841 0.00128019 -1.06603e-05)
(-6.67606e-05 3.88041e-05 0.00180785 7.75659e-05 0.00114586 -1.08053e-05)
(-3.35729e-05 1.15169e-05 0.000891571 4.06035e-05 0.000771086 -7.0306e-06)
(9.97765e-05 2.01815e-05 0.000569602 -0.000104001 -0.000495355 4.22444e-06)
(0.000138343 7.55406e-05 0.0012783 -0.000144351 -0.000810512 6.00738e-06)
(0.000132324 0.000135318 0.00226984 -0.00013849 -0.000968025 6.16592e-06)
(8.25237e-05 0.000157122 0.00325971 -8.75349e-05 -0.000803459 5.01124e-06)
(1.82686e-05 0.000116889 0.00398088 -2.35115e-05 -0.000322202 5.24293e-06)
(-1.00719e-05 1.45378e-05 0.00419669 5.32538e-06 0.000334356 4.74652e-06)
(4.6596e-05 -0.00010085 0.00389836 -4.6477e-05 0.000949208 -1.19014e-07)
(0.000147348 -0.000130761 0.00321981 -0.000142734 0.00135792 -4.61341e-06)
(0.00015277 -5.81913e-05 0.00213911 -0.000152236 0.00134504 -5.34264e-07)
(5.9765e-05 2.76725e-06 0.00106185 -6.40076e-05 0.000919735 4.24257e-06)
(1.92289e-05 9.16929e-06 0.000334931 -2.11681e-05 -0.000287552 1.93922e-06)
(-2.00683e-05 -1.42277e-06 0.000727558 1.63567e-05 -0.000457783 3.71161e-06)
(-3.96e-05 -2.80753e-05 0.00123216 3.01442e-05 -0.000523068 9.45576e-06)
(-4.63167e-05 -5.865e-05 0.00178159 2.87999e-05 -0.000441542 1.75168e-05)
(-4.15115e-05 -8.85e-05 0.00226258 1.39223e-05 -0.000192341 2.75892e-05)
(-2.2328e-05 -0.000106252 0.0025579 -1.11539e-05 0.00018893 3.34819e-05)
(2.01947e-05 -0.00012641 0.00252796 -5.34774e-05 0.000603346 3.32827e-05)
(6.20995e-05 -9.81246e-05 0.00206744 -9.18677e-05 0.000869309 2.97682e-05)
(4.04998e-05 -3.32328e-05 0.00125313 -6.33817e-05 0.000794165 2.28819e-05)
(-4.45967e-06 -3.02267e-06 0.000509586 -8.72439e-06 0.000445063 1.31841e-05)
(-6.97067e-05 -2.75518e-06 0.000399548 6.6711e-05 -0.00034107 2.9957e-06)
(-0.000141999 -5.17805e-05 0.00079746 0.000135131 -0.000496396 6.86813e-06)
(-0.000144747 -0.000109901 0.0011613 0.0001292 -0.000482503 1.55465e-05)
(-9.25846e-05 -0.000118025 0.00141843 6.82533e-05 -0.00034014 2.43313e-05)
(-4.10243e-05 -5.81062e-05 0.00159618 8.97534e-06 -0.000128826 3.2049e-05)
(-3.68501e-05 3.90184e-05 0.00170739 4.44417e-06 0.000127832 3.2406e-05)
(-6.71209e-05 7.36401e-05 0.00160755 4.1884e-05 0.000383621 2.52369e-05)
(-7.49616e-05 4.42675e-05 0.00121771 5.7646e-05 0.000512898 1.73155e-05)
(-4.52661e-05 8.84919e-06 0.000672212 3.45034e-05 0.000427859 1.07627e-05)
(-2.87008e-05 -6.29755e-07 0.000255216 2.33721e-05 0.000222925 5.32869e-06)
(-0.000147032 -1.48405e-05 0.000534775 0.00014597 -0.000460256 1.06208e-06)
(-0.000292686 -0.000118087 0.00110705 0.000284599 -0.000694005 8.08685e-06)
(-0.000361238 -0.000308858 0.00162621 0.000344812 -0.000676864 1.64256e-05)
(-0.000224879 -0.000375984 0.00180612 0.00019653 -0.000423965 2.83493e-05)
(-4.68873e-05 -0.000195904 0.00165285 1.15214e-05 -0.000116766 3.53659e-05)
(-2.16175e-05 9.35049e-05 0.00144003 -9.23101e-06 0.000122221 3.08485e-05)
(-0.000137899 0.000251183 0.00127071 0.000119494 0.000307296 1.84056e-05)
(-0.000226156 0.00020193 0.00104782 0.000220606 0.000436405 5.54994e-06)
(-0.000143143 5.59838e-05 0.000649177 0.000143911 0.000406723 -7.67422e-07)
(-4.64356e-05 2.96084e-07 0.000289776 4.83786e-05 0.000250607 -1.94299e-06)
(-7.48571e-05 3.99218e-07 0.000351096 6.78246e-05 -0.000305303 7.0325e-06)
(-0.000130948 -3.11222e-05 0.000814339 0.000113462 -0.000524 1.74861e-05)
(-0.000232365 -0.00015118 0.00154424 0.000205948 -0.000670272 2.64168e-05)
(-0.000207516 -0.000289891 0.00217369 0.000178206 -0.000545241 2.93101e-05)
(-6.78466e-05 -0.000253901 0.00250588 3.83147e-05 -0.000207135 2.95319e-05)
(-2.49094e-05 2.08198e-05 0.00246613 -1.48128e-05 0.000201308 3.97223e-05)
(-0.000192361 0.000309289 0.00210106 0.000152919 0.000524379 3.94428e-05)
(-0.000345772 0.00030751 0.00150116 0.000334491 0.000646262 1.12814e-05)
(-0.000206453 8.62404e-05 0.000796679 0.0002133 0.000506527 -6.8468e-06)
(-4.63701e-05 -2.32697e-06 0.000344788 5.10464e-05 0.000298051 -4.67631e-06)
(-5.89145e-06 1.08536e-05 0.000321579 2.18896e-06 -0.000279116 3.70249e-06)
(-8.98173e-06 1.87176e-05 0.000633765 -3.80598e-07 -0.000407718 9.36232e-06)
(-2.66609e-05 2.19538e-05 0.00122809 1.20648e-05 -0.000542033 1.45961e-05)
(-3.49067e-05 1.98623e-05 0.00204262 1.76125e-05 -0.000530386 1.72942e-05)
(-2.56255e-05 5.10366e-05 0.00283366 9.94964e-06 -0.000254026 1.56758e-05)
(-5.07924e-05 0.000149722 0.00318679 3.41636e-05 0.000244851 1.66288e-05)
(-0.000162233 0.000276632 0.00288173 0.000148894 0.000716504 1.3339e-05)
(-0.000256627 0.000238123 0.0019706 0.000258009 0.000855091 -1.38198e-06)
(-0.000169818 7.31273e-05 0.0010173 0.000179002 0.000652027 -9.18373e-06)
(-3.40884e-05 -5.09664e-06 0.000415837 3.89622e-05 0.000359484 -4.8738e-06)
(0.000189868 1.54832e-05 0.000576222 -0.000179967 -0.000499908 -9.90128e-06)
(0.000321177 0.000156955 0.00111431 -0.000302972 -0.00070632 -1.82045e-05)
(0.000264294 0.000277063 0.00192611 -0.000231142 -0.000825465 -3.31526e-05)
(0.000102784 0.000223595 0.00279849 -5.57009e-05 -0.000701004 -4.70827e-05)
(1.91803e-05 2.8292e-05 0.00381402 4.14841e-05 -0.000336779 -6.06644e-05)
(7.84909e-05 -6.98147e-05 0.00480928 -6.67552e-06 0.000360443 -7.18154e-05)
(5.22455e-05 4.69829e-05 0.00452154 2.39002e-06 0.00111824 -5.46355e-05)
(-5.69911e-05 9.56823e-05 0.0031061 9.06286e-05 0.00134521 -3.36375e-05)
(-4.63295e-05 3.29137e-05 0.00159314 7.061e-05 0.00102021 -2.42805e-05)
(7.95433e-06 -3.69581e-06 0.000705062 4.06638e-06 0.000607872 -1.20207e-05)
(0.000441828 3.8602e-05 0.00140874 -0.000405775 -0.00119633 -3.60531e-05)
(0.00040359 0.000198073 0.00223698 -0.000345316 -0.00138675 -5.82732e-05)
(0.000107545 9.92629e-05 0.00363769 -2.26491e-05 -0.00154025 -8.48957e-05)
(-8.15313e-05 -0.000230658 0.00554088 0.000188652 -0.00139047 -0.000107121)
(-1.56505e-05 -0.000656053 0.00794354 0.000146465 -0.000705442 -0.000130815)
(0.000289321 -0.000773095 0.00961682 -0.000148267 0.000731042 -0.000141054)
(0.000381376 -0.00047959 0.00844254 -0.000285168 0.00209073 -9.62077e-05)
(0.000313333 -0.000226818 0.00568996 -0.000251752 0.00245095 -6.15813e-05)
(0.00025617 -8.44491e-05 0.00306934 -0.000211287 0.00194322 -4.48835e-05)
(0.000161497 -3.2147e-06 0.00162894 -0.000132515 0.00139199 -2.89821e-05)
(0.000361177 2.40354e-05 0.00236755 -0.000333431 -0.00198567 -2.77456e-05)
(0.000239619 0.000123646 0.00348235 -0.000180556 -0.00215197 -5.90631e-05)
(-0.000162417 -0.000182652 0.00566055 0.000239983 -0.00242006 -7.75653e-05)
(-0.000261531 -0.000589281 0.00902256 0.000322638 -0.00228939 -6.11076e-05)
(-7.28215e-05 -0.000859804 0.0125411 0.000130389 -0.00110142 -5.7568e-05)
(0.000248989 -0.000802557 0.0139249 -0.000177364 0.00108352 -7.16254e-05)
(0.000352124 -0.000509928 0.0115393 -0.000296662 0.00286298 -5.54617e-05)
(0.000376553 -0.000323683 0.00754694 -0.000335386 0.00323654 -4.11676e-05)
(0.000385339 -0.00017193 0.00418466 -0.000358864 0.00262688 -2.6475e-05)
(0.000281878 -3.23568e-05 0.0023661 -0.000269099 0.00201147 -1.27791e-05)
(0.000200216 2.63507e-06 0.00263192 -0.000207254 -0.00221307 7.03861e-06)
(0.000276804 0.000159584 0.00400417 -0.000262066 -0.00246456 -1.47385e-05)
(-4.07051e-05 1.65928e-05 0.00555309 6.18466e-05 -0.00235678 -2.11415e-05)
(-0.000210782 -0.00033115 0.00815533 0.00019856 -0.00207858 1.22223e-05)
(-0.000117738 -0.000524303 0.0115665 5.70886e-05 -0.00103874 6.06495e-05)
(6.53872e-05 -0.00040887 0.0131123 -0.000130231 0.00100775 6.48435e-05)
(8.62847e-05 -0.000164294 0.010943 -0.000129044 0.00271482 4.27597e-05)
(8.40507e-05 -0.00010163 0.00700337 -0.000106089 0.0030046 2.2038e-05)
(0.00012091 -7.82312e-05 0.00381352 -0.000136168 0.00239458 1.52584e-05)
(0.000101831 -2.44529e-05 0.00204434 -0.00011264 0.00174443 1.08087e-05)
(0.000232627 1.08974e-05 0.0022747 -0.000249764 -0.00193858 1.71374e-05)
(0.000516222 0.000250909 0.00398138 -0.000530663 -0.00246429 1.44411e-05)
(0.000447914 0.000501729 0.00555195 -0.000452572 -0.00232182 4.65757e-06)
(0.000138684 0.000413361 0.00665137 -0.000143993 -0.001631 5.30857e-06)
(-4.51524e-05 0.000110153 0.00775665 1.56589e-05 -0.000660762 2.94935e-05)
(-2.82847e-05 -8.91064e-05 0.00848069 -2.9957e-05 0.000646066 5.82417e-05)
(-1.84805e-06 -5.89583e-05 0.00737804 -5.83693e-05 0.00181853 6.02174e-05)
(1.03638e-06 -3.4702e-05 0.00482226 -3.86547e-05 0.00206893 3.76183e-05)
(3.25251e-05 -3.57345e-05 0.00260167 -5.1793e-05 0.00164058 1.9268e-05)
(4.5572e-05 -1.68379e-05 0.00130925 -5.5645e-05 0.00112492 1.00731e-05)
(0.000304703 5.30152e-05 0.00142274 -0.00032282 -0.00122216 1.81175e-05)
(0.000467441 0.000250609 0.00292533 -0.000489842 -0.00183191 2.24006e-05)
(0.000511493 0.000571333 0.00479748 -0.000539328 -0.00201947 2.78353e-05)
(0.000289426 0.000718142 0.00595577 -0.000308935 -0.00144106 1.95087e-05)
(6.91668e-06 0.000558845 0.00614886 -2.78802e-05 -0.000484214 2.09635e-05)
(-0.000124966 0.00027034 0.00570368 9.33848e-05 0.00045719 3.15814e-05)
(-8.91172e-05 4.58302e-05 0.00470508 6.17933e-05 0.00115293 2.73239e-05)
(1.65254e-05 -5.46208e-05 0.00330416 -2.57569e-05 0.00139824 9.23154e-06)
(9.38181e-05 -5.47629e-05 0.00202705 -8.95098e-05 0.00126538 -4.3083e-06)
(0.000114959 -1.99937e-05 0.0010994 -0.000107893 0.000940741 -7.06532e-06)
(0.000113609 1.69654e-05 0.000958011 -0.000129766 -0.000824606 1.61574e-05)
(0.000308459 0.000156619 0.00220719 -0.000336859 -0.00139253 2.84e-05)
(0.00057491 0.000580006 0.00409491 -0.000613638 -0.00173999 3.87281e-05)
(0.000532259 0.00108587 0.0055549 -0.00055436 -0.0013537 2.21009e-05)
(0.000153309 0.00114579 0.00579162 -0.000147043 -0.00045713 -6.26641e-06)
(-0.000135009 0.000774127 0.00527834 0.000166068 0.000414842 -3.10596e-05)
(-0.000166733 0.000335784 0.00451879 0.000209614 0.00107996 -4.28809e-05)
(-3.40866e-05 5.18926e-05 0.00367283 7.92376e-05 0.00151756 -4.5151e-05)
(0.000108793 -4.26679e-05 0.00264987 -7.41244e-05 0.00162884 -3.46688e-05)
(0.000152468 -2.12168e-05 0.00157239 -0.000130753 0.00133278 -2.17147e-05)
(2.3846e-06 -2.39672e-05 0.000910367 6.88168e-07 -0.000783216 -3.07277e-06)
(0.000231191 5.53664e-05 0.00203404 -0.000226077 -0.00127899 -5.11435e-06)
(0.00061534 0.00047552 0.00382758 -0.000603874 -0.00161359 -1.14661e-05)
(0.000763802 0.00125181 0.00533184 -0.000723738 -0.00127137 -4.00645e-05)
(0.000331253 0.00159168 0.00545412 -0.000249468 -0.000412241 -8.17851e-05)
(-0.000150019 0.00124886 0.00508616 0.000250909 0.00037944 -0.00010089)
(-0.000329833 0.000722791 0.00498208 0.000426788 0.00114298 -9.69555e-05)
(-0.000270019 0.000300446 0.00472768 0.00034655 0.00191517 -7.65307e-05)
(-0.000103764 5.59306e-05 0.00357048 0.000146043 0.00218047 -4.22789e-05)
(1.72762e-05 -1.08162e-05 0.00210525 4.09986e-06 0.00177893 -2.13761e-05)
(-9.12788e-05 -4.51819e-05 0.00149676 0.000112548 -0.00128467 -2.12689e-05)
(-7.88774e-05 -0.000105365 0.00317239 0.00011305 -0.00199953 -3.41727e-05)
(0.000152337 -6.59785e-05 0.00597635 -9.32249e-05 -0.00254731 -5.91119e-05)
(0.000649974 0.000547814 0.00945423 -0.0005356 -0.00231723 -0.000114374)
(0.000776211 0.0018825 0.0118766 -0.000564006 -0.000914709 -0.000212206)
(6.80188e-07 0.00265232 0.0115095 0.000279273 0.000957704 -0.000279953)
(-0.000821401 0.002172 0.00970469 0.00108743 0.00235575 -0.000266025)
(-0.00102389 0.00115926 0.00749231 0.00120759 0.00312369 -0.000183694)
(-0.000659962 0.000337003 0.00475523 0.000744368 0.00295055 -8.44055e-05)
(-0.000251985 2.8059e-05 0.00243522 0.000285082 0.00208083 -3.30963e-05)
(-0.000166316 -9.89211e-06 0.00190215 0.000153101 -0.0016368 1.32152e-05)
(-0.000450886 -0.000178075 0.00380648 0.000407263 -0.00242375 4.36231e-05)
(-0.000634634 -0.000580088 0.00725221 0.000534257 -0.00314964 0.000100378)
(-0.000346642 -0.000768821 0.0121793 0.000154406 -0.00311315 0.000192236)
(0.000274864 0.000300178 0.0180797 -0.000485408 -0.00162442 0.000210544)
(-1.69002e-05 0.0022692 0.0227102 -3.57453e-05 0.00170399 5.26455e-05)
(-0.00130432 0.00304931 0.0218085 0.00140085 0.00538546 -9.65272e-05)
(-0.00194699 0.00198757 0.0154724 0.00208056 0.00668837 -0.000133561)
(-0.00124515 0.000570671 0.00805583 0.00133197 0.00515911 -8.68202e-05)
(-0.000420491 4.25073e-05 0.00343938 0.0004687 0.00301136 -4.82092e-05)
(6.18672e-05 2.40957e-05 0.000430145 -8.43026e-05 -0.000364513 2.24355e-05)
(-1.86388e-05 6.37245e-05 0.000664479 -3.63924e-05 -0.000414226 5.50312e-05)
(-0.00018949 -2.34766e-05 0.000858921 9.30817e-05 -0.000360179 9.64085e-05)
(-0.000227531 -0.00013024 0.00109162 7.62005e-05 -0.000290375 0.000151331)
(-0.000195903 3.05946e-05 0.00247953 -6.0133e-05 -0.000350803 0.000256036)
(-0.000497745 0.000448892 0.00936423 6.34107e-05 0.00029291 0.000434334)
(-0.0004804 -0.000246866 0.0168441 0.00011214 0.00374789 0.00036826)
(0.000419292 -0.000805429 0.016961 -0.000558982 0.00711877 0.00013969)
(0.000924834 -0.000513805 0.0109905 -0.000925725 0.00695099 8.91414e-07)
(0.00085387 -0.000111981 0.00539463 -0.000811917 0.00467537 -4.19536e-05)
(1.57213e-06 1.69951e-06 1.50873e-06 -2.67009e-06 -3.78367e-07 1.09796e-06)
(-5.46378e-06 7.48774e-06 -7.31415e-06 2.09611e-07 6.68147e-06 5.25416e-06)
(-0.00012635 -2.91689e-05 -0.000143121 8.72095e-05 7.7203e-05 3.91402e-05)
(-0.000262035 -0.000215569 -0.000639714 0.000145168 0.000180527 0.000116866)
(-6.95934e-05 5.00348e-05 -0.000604856 -3.97798e-05 2.29755e-06 0.000109373)
(-7.97627e-05 0.000157452 3.76233e-05 3.69092e-05 -5.3037e-05 4.28535e-05)
(-0.000354667 -8.18111e-05 0.00247781 0.000210009 0.000292367 0.000144658)
(0.0011828 -0.00166353 0.0086483 -0.00135914 0.00326608 0.000176345)
(0.00147255 -0.000814182 0.00771296 -0.00160737 0.0047074 0.000134815)
(0.000978901 -0.000210323 0.00465087 -0.00105163 0.00392836 7.27262e-05)
(-3.40055e-06 1.58363e-07 1.54168e-06 3.43675e-06 -8.15959e-08 -3.61979e-08)
(-4.38113e-05 -1.30807e-06 -2.56009e-05 4.14396e-05 2.18371e-05 2.37163e-06)
(-0.000584341 -0.000418033 -0.000437971 0.000574257 0.000231255 1.00839e-05)
(-0.000596414 -0.00121881 -0.00126491 0.000584005 0.000364284 1.24096e-05)
(0.000152893 -0.000148478 -0.000726906 -0.000135994 4.616e-05 -1.68994e-05)
(-8.01479e-05 0.000776567 -0.00034173 6.21103e-05 -9.27625e-05 1.80376e-05)
(-0.000395424 0.000600349 0.000340909 0.000408767 -1.80449e-05 -1.33426e-05)
(6.60503e-05 -0.000211244 0.00161367 -4.07102e-05 0.000521498 -2.534e-05)
(0.000652475 -0.000279028 0.00331997 -0.000675759 0.00192586 2.32845e-05)
(3.68987e-06 3.75397e-05 0.0022496 -4.7898e-05 0.00188518 4.42082e-05)
(6.78987e-05 -2.0049e-05 0.000610166 -2.82213e-05 -0.000488393 -3.96775e-05)
(-0.000149447 -4.10574e-06 0.000468851 0.000176327 -0.000278458 -2.68803e-05)
(-0.00143142 -0.0010798 0.00108653 0.00148301 -0.000450991 -5.1583e-05)
(-0.00205828 -0.00403443 0.00217953 0.00216622 -0.00053539 -0.00010794)
(5.94304e-05 -0.00266103 0.00230715 5.48575e-05 -0.000164731 -0.000114288)
(0.000300934 -0.000303144 0.00229329 -0.000289362 0.00024843 -1.15719e-05)
(-0.000139762 0.000365931 0.00209154 0.000163496 0.000575691 -2.37336e-05)
(0.000134313 -7.9933e-05 0.00176136 -9.01456e-05 0.000731139 -4.41671e-05)
(0.000252407 -5.41318e-05 0.00178741 -0.000259745 0.00107361 7.33777e-06)
(-0.000109542 5.21912e-05 0.0010951 8.85162e-05 0.000918998 2.10259e-05)
(0.000101979 -7.72153e-05 0.00208352 -7.12678e-05 -0.00167877 -3.07117e-05)
(-7.80591e-05 3.35697e-05 0.00158184 0.000127555 -0.00094481 -4.94961e-05)
(-0.00171802 -0.000971262 0.00232335 0.0016695 -0.0010016 4.85198e-05)
(-0.00536687 -0.00701484 0.00594062 0.00497454 -0.00150046 0.000392331)
(-0.00403093 -0.0156494 0.00897517 0.00332144 -0.000421126 0.000709491)
(0.00136746 -0.0121464 0.00644914 -0.00214703 0.00108475 0.000779574)
(0.00192185 -0.00400797 0.00240768 -0.00241082 0.000913528 0.00048897)
(0.000482801 -0.000457391 0.000476811 -0.000622362 0.000250964 0.000139562)
(2.41e-06 2.22661e-05 0.000203221 -3.93022e-05 0.000116811 3.68922e-05)
(-0.00031673 8.86985e-05 0.000483007 0.000278653 0.000373302 3.80771e-05)
(-0.000253297 -4.12617e-05 0.00281812 0.000147819 -0.00227423 0.000105478)
(0.000291621 0.000153745 0.00131113 -0.000268358 -0.000726543 -2.32624e-05)
(-0.000253754 -0.000103833 0.000510279 0.000274381 -0.000195506 -2.06271e-05)
(-0.00231563 -0.0026144 0.00100817 0.00222526 -0.000229491 9.03691e-05)
(-0.0067177 -0.0219699 0.000868904 0.00620182 0.000329576 0.000515876)
(0.00489096 -0.0488924 -0.00770614 -0.0061718 0.00101686 0.00128083)
(0.0176288 -0.034548 -0.016539 -0.0194647 -0.00251068 0.00183593)
(0.00826702 -0.00698593 -0.00982535 -0.00927695 -0.00396218 0.00100993)
(0.000113357 0.000159693 -0.00135343 -0.000295357 -0.000953155 0.000182)
(-0.000873878 0.000270069 -0.000141792 0.000847826 -0.000215697 2.60517e-05)
(0.000206113 -5.68493e-05 0.0042893 -0.000283807 -0.00360923 7.76937e-05)
(0.00149698 0.000643168 0.00355038 -0.00148248 -0.00198183 -1.44989e-05)
(0.000687224 0.000708426 0.00124891 -0.000614296 -0.000412816 -7.29279e-05)
(-1.1397e-05 1.94447e-05 3.42804e-05 2.24512e-05 -4.21175e-06 -1.10542e-05)
(-0.00111211 -0.00276889 -0.000187828 0.00124679 -7.83094e-06 -0.000134685)
(0.00198047 -0.0269908 -0.00313478 -0.00171451 -7.66838e-06 -0.000265953)
(0.0187799 -0.0352013 -0.0109271 -0.0189326 -0.00185319 0.000152681)
(0.00967019 -0.00637877 -0.00688715 -0.00959714 -0.00291382 -7.30524e-05)
(2.16253e-05 0.000127776 -0.000262287 -5.26622e-05 -0.000213807 3.10369e-05)
(-0.001392 0.00037439 0.000318435 0.00140285 0.000156355 -1.08484e-05)
(0.000341077 -8.69064e-05 0.00534454 -0.000354185 -0.00466005 1.31072e-05)
(0.00247771 0.000862009 0.00862468 -0.00240634 -0.0050965 -7.1372e-05)
(0.002456 0.00222598 0.00635007 -0.00233366 -0.00230522 -0.000122348)
(0.000797575 0.00154858 0.00219366 -0.00061431 -0.000352114 -0.000183266)
(-5.98081e-05 -1.00134e-05 0.000109161 8.83681e-05 4.80532e-06 -2.856e-05)
(-0.000248149 -0.0072985 0.000131553 0.000363351 0.000165992 -0.000115203)
(0.0105267 -0.0225031 -0.0035919 -0.0107727 -0.000325925 0.000245994)
(0.0064206 -0.0042621 -0.00264363 -0.00631442 -0.00109046 -0.000106183)
(-2.22553e-06 7.29443e-06 -1.4188e-06 -1.45186e-06 -3.59144e-06 3.67739e-06)
(-0.00076402 0.000159177 0.000441545 0.000741829 0.000316745 2.21911e-05)
(1.96382e-05 -0.000236486 0.00642205 5.51104e-05 -0.00569304 -7.47486e-05)
(0.00237156 0.000489675 0.0122865 -0.00219667 -0.00744395 -0.00017489)
(0.00331726 0.00257814 0.0108049 -0.00313158 -0.00402843 -0.000185681)
(0.00133716 0.00254135 0.00438868 -0.00111322 -0.000713651 -0.000223934)
(-0.00026817 5.03027e-05 0.000627272 0.000321504 1.42463e-05 -5.33341e-05)
(-0.00106188 -0.0122281 0.00201248 0.0010692 0.000475724 -7.32009e-06)
(0.0214095 -0.0470639 -0.000845453 -0.0216823 0.000733469 0.000272792)