/*--------------------------------*- C++ -*----------------------------------*\
| =========                 |                                                 |
| \\      /  F ield         | OpenFOAM: The Open Source CFD Toolbox           |
|  \\    /   O peration     | Version:  2406                                  |
|   \\  /    A nd           | Website:  www.openfoam.com                      |
|    \\/     M anipulation  |                                                 |
\*---------------------------------------------------------------------------*/
FoamFile
{
    version     2.0;
    format      ascii;
    arch        "LSB;label=32;scalar=64";
    class       volVectorField;
    location    "0.2";
    object      U;
}
// * * * * * * * * * * * * * * * * * * * * * * * * * * * * * * * * * * * * * //

dimensions      [0 1 -1 0 0 0 0];

internalField   nonuniform List<vector> 
25000
(
(0.202716 0.10484 1.14652)
(0.2737 0.0203052 1.32055)
(0.357995 -0.0357923 1.42781)
(0.431637 -0.051654 1.50836)
(0.467535 -0.0327081 1.56136)
(0.450162 0.00717643 1.57909)
(0.3823 0.0544446 1.56382)
(0.280519 0.0973531 1.52635)
(0.162208 0.128694 1.47324)
(0.0397921 0.148198 1.37904)
(0.1664 0.0367442 1.37408)
(0.221038 -0.0935529 1.52489)
(0.317984 -0.177906 1.58245)
(0.423353 -0.206126 1.62123)
(0.498088 -0.183087 1.65521)
(0.511532 -0.127857 1.67013)
(0.456847 -0.0620719 1.65911)
(0.347935 -0.000699896 1.62793)
(0.20624 0.0504428 1.57951)
(0.0470763 0.0909944 1.47719)
(0.11631 -0.0326538 1.49809)
(0.164736 -0.179436 1.59799)
(0.281138 -0.275507 1.59916)
(0.422628 -0.309333 1.60549)
(0.539568 -0.283505 1.64569)
(0.583857 -0.218237 1.68302)
(0.539369 -0.140568 1.68898)
(0.421315 -0.0687905 1.66687)
(0.257784 -0.00942917 1.62321)
(0.0711106 0.0367875 1.52662)
(0.0712056 -0.0818594 1.54189)
(0.118199 -0.222266 1.58046)
(0.253329 -0.313536 1.51193)
(0.424819 -0.344104 1.48645)
(0.57775 -0.317239 1.55406)
(0.650113 -0.252388 1.64506)
(0.614399 -0.176263 1.68865)
(0.487419 -0.107644 1.68355)
(0.304266 -0.0525889 1.64693)
(0.0939248 -0.012055 1.55698)
(0.041013 -0.0969136 1.52752)
(0.0906896 -0.207913 1.50723)
(0.238733 -0.281535 1.37052)
(0.428884 -0.300893 1.31993)
(0.604893 -0.273487 1.42205)
(0.696853 -0.219797 1.57897)
(0.667462 -0.16164 1.67126)
(0.53419 -0.112262 1.68823)
(0.337389 -0.0751004 1.65976)
(0.111777 -0.0503714 1.575)
(0.0340823 -0.074296 1.49052)
(0.0864686 -0.140035 1.43663)
(0.239798 -0.181148 1.26751)
(0.435875 -0.186245 1.21072)
(0.61648 -0.165006 1.33401)
(0.71352 -0.132264 1.53128)
(0.685718 -0.105879 1.65446)
(0.550063 -0.0892751 1.68671)
(0.348854 -0.0807807 1.66414)
(0.119586 -0.0788884 1.58183)
(0.0563498 -0.0273469 1.4605)
(0.106471 -0.0364729 1.42053)
(0.253213 -0.0405871 1.27069)
(0.440017 -0.0335265 1.22829)
(0.607586 -0.0232228 1.35218)
(0.692444 -0.0204625 1.53663)
(0.66008 -0.0337196 1.65065)
(0.526734 -0.0563521 1.68205)
(0.331846 -0.0802032 1.66061)
(0.11128 -0.101711 1.57747)
(0.103063 0.0198437 1.43717)
(0.145953 0.0636088 1.45521)
(0.272894 0.0932901 1.37351)
(0.433075 0.108196 1.36179)
(0.569194 0.102737 1.46055)
(0.627491 0.0708426 1.58185)
(0.586696 0.0195504 1.65343)
(0.461329 -0.0373357 1.67098)
(0.283485 -0.0869795 1.64771)
(0.084757 -0.123176 1.56079)
(0.163562 0.0418639 1.39805)
(0.197514 0.111172 1.48466)
(0.291764 0.159588 1.48738)
(0.40614 0.173559 1.50643)
(0.493616 0.149656 1.56046)
(0.518181 0.0941383 1.61466)
(0.468746 0.0207676 1.6435)
(0.356384 -0.0528922 1.64567)
(0.204439 -0.1115 1.618)
(0.040559 -0.145705 1.52631)
(0.212052 0.0216282 1.30135)
(0.247552 0.0805495 1.41593)
(0.302989 0.116048 1.46917)
(0.359847 0.117205 1.50829)
(0.391545 0.0828402 1.54265)
(0.380061 0.0219731 1.56664)
(0.320346 -0.0501984 1.57547)
(0.220944 -0.115422 1.56538)
(0.0988908 -0.158844 1.53028)
(-0.0220917 -0.165171 1.44297)
(0.0451075 -0.51518 1.08472)
(0.17547 -0.633439 1.30907)
(0.299712 -0.683493 1.41184)
(0.444359 -0.673922 1.61214)
(0.587265 -0.574333 1.95419)
(0.682646 -0.39715 2.35213)
(0.692322 -0.203023 2.68086)
(0.618496 -0.0563545 2.8651)
(0.48995 0.0237241 2.88603)
(0.335292 0.0493338 2.67284)
(0.0154192 -0.629775 1.41714)
(0.10623 -0.768278 1.37488)
(0.21837 -0.841958 1.26203)
(0.362776 -0.871577 1.29609)
(0.532286 -0.81573 1.60154)
(0.677578 -0.65208 2.09797)
(0.737764 -0.429427 2.57892)
(0.691312 -0.228493 2.9077)
(0.556864 -0.0949697 3.0519)
(0.364328 -0.0243699 2.92881)
(-0.0182847 -0.705827 1.41933)
(0.0569171 -0.842306 1.03545)
(0.163298 -0.898059 0.682831)
(0.311254 -0.933391 0.556322)
(0.502691 -0.91834 0.846285)
(0.688414 -0.801339 1.49898)
(0.788893 -0.594396 2.21809)
(0.76075 -0.373061 2.75024)
(0.616478 -0.204188 3.02913)
(0.394753 -0.10465 2.99962)
(-0.0477568 -0.753777 1.19967)
(0.0256712 -0.867954 0.520963)
(0.147826 -0.879056 -0.0153238)
(0.316387 -0.888268 -0.261644)
(0.519336 -0.891969 0.0145475)
(0.725039 -0.827392 0.794435)
(0.852027 -0.666229 1.75603)
(0.832819 -0.460001 2.52316)
(0.674158 -0.284368 2.95121)
(0.422906 -0.175776 3.00395)
(-0.0848964 -0.734296 0.849464)
(0.00329742 -0.811345 -0.0312269)
(0.16416 -0.770192 -0.696873)
(0.367196 -0.746073 -0.987846)
(0.584805 -0.751882 -0.683343)
(0.792461 -0.732891 0.193718)
(0.926931 -0.630601 1.33335)
(0.905071 -0.469739 2.30232)
(0.728353 -0.316832 2.86289)
(0.451745 -0.219637 2.9734)
(-0.117082 -0.623355 0.52868)
(-0.0108186 -0.6519 -0.475098)
(0.189516 -0.574767 -1.20386)
(0.426844 -0.528686 -1.46992)
(0.665848 -0.533775 -1.10177)
(0.876222 -0.547854 -0.147957)
(1.00129 -0.504259 1.08923)
(0.964165 -0.404972 2.16618)
(0.767653 -0.298172 2.79762)
(0.472932 -0.229702 2.92315)
(-0.12106 -0.424923 0.411181)
(-0.00508604 -0.415881 -0.600711)
(0.217247 -0.323599 -1.32847)
(0.478385 -0.269667 -1.53944)
(0.735519 -0.279212 -1.1042)
(0.946004 -0.317019 -0.112985)
(1.04857 -0.322435 1.1243)
(0.987589 -0.286168 2.17652)
(0.774873 -0.236856 2.77795)
(0.473186 -0.206254 2.85875)
(-0.0822377 -0.175815 0.551914)
(0.0335116 -0.14136 -0.309038)
(0.255415 -0.0504166 -0.969677)
(0.521066 -0.00241252 -1.10682)
(0.779203 -0.0220038 -0.623282)
(0.973127 -0.0750589 0.334625)
(1.03908 -0.118632 1.44735)
(0.950964 -0.140724 2.32422)
(0.733244 -0.149698 2.78547)
(0.441623 -0.154567 2.76201)
(-0.00254549 0.0723513 0.841219)
(0.111037 0.130397 0.3362)
(0.312526 0.207071 -0.105352)
(0.552833 0.239464 -0.123534)
(0.776233 0.210994 0.349587)
(0.918543 0.142432 1.14764)
(0.935736 0.0623588 1.95466)
(0.825293 -0.00912708 2.51941)
(0.621465 -0.0621012 2.76181)
(0.363687 -0.0844165 2.58287)
(0.0749769 0.233288 1.01642)
(0.201894 0.309402 1.02274)
(0.369761 0.365625 0.957165)
(0.548564 0.373538 1.10018)
(0.690141 0.327179 1.47794)
(0.749072 0.241192 1.94827)
(0.708811 0.142881 2.33974)
(0.588198 0.0581393 2.54898)
(0.415633 0.00264853 2.53639)
(0.217869 0.00337809 2.16717)
(0.0832539 -0.36624 1.524)
(-0.141076 -0.307689 1.64766)
(-0.309483 -0.439451 1.66088)
(-0.37638 -0.61886 1.97676)
(-0.336514 -0.670636 2.67052)
(-0.197935 -0.54982 3.51717)
(-0.033594 -0.338375 4.17155)
(0.0823561 -0.155689 4.46584)
(0.12126 -0.0578611 4.47235)
(0.0880409 -0.048331 4.12223)
(0.138481 -0.440678 1.7391)
(-0.0981402 -0.323381 1.73395)
(-0.303384 -0.437896 1.37796)
(-0.42677 -0.667366 1.27383)
(-0.438042 -0.820323 1.78493)
(-0.312733 -0.808166 2.77131)
(-0.106204 -0.653455 3.78423)
(0.0680113 -0.452395 4.43234)
(0.144425 -0.295231 4.66577)
(0.109403 -0.211365 4.46434)
(0.177704 -0.585921 1.61785)
(-0.0228462 -0.381177 1.52718)
(-0.183959 -0.390105 0.876132)
(-0.292153 -0.567896 0.370987)
(-0.343687 -0.749913 0.637175)
(-0.266942 -0.841419 1.65644)
(-0.0719584 -0.80896 2.92461)
(0.116274 -0.666573 3.93538)
(0.197554 -0.491602 4.47875)
(0.145716 -0.362187 4.46435)
(0.132277 -0.744399 1.1466)
(0.00229409 -0.448326 0.955305)
(-0.0476295 -0.329281 0.135654)
(-0.0761771 -0.407036 -0.548361)
(-0.116082 -0.56193 -0.438447)
(-0.0821467 -0.711123 0.579157)
(0.0725172 -0.807569 1.98642)
(0.238146 -0.771768 3.27878)
(0.288632 -0.630048 4.15417)
(0.196467 -0.488512 4.34274)
(-0.00116357 -0.802241 0.319631)
(-0.0337983 -0.419462 -0.0906735)
(0.0335045 -0.212614 -0.939964)
(0.0843398 -0.199206 -1.54058)
(0.0958868 -0.310638 -1.41194)
(0.143895 -0.489903 -0.427531)
(0.275841 -0.688307 1.1388)
(0.411153 -0.767028 2.65389)
(0.415328 -0.687305 3.80517)
(0.272243 -0.559465 4.16876)
(-0.153886 -0.73153 -0.613096)
(-0.0924416 -0.314623 -1.25982)
(0.0496255 -0.0608019 -2.09628)
(0.162013 0.0179295 -2.5276)
(0.246291 -0.0580273 -2.20825)
(0.348364 -0.253786 -1.11739)
(0.495051 -0.520294 0.553194)
(0.606224 -0.686214 2.19529)
(0.560063 -0.664698 3.51537)
(0.364372 -0.562231 3.98478)
(-0.272115 -0.587609 -1.28769)
(-0.155099 -0.190502 -2.10293)
(0.0304742 0.080185 -2.86719)
(0.201406 0.195652 -3.11922)
(0.363767 0.139884 -2.60875)
(0.537056 -0.0687503 -1.36613)
(0.71424 -0.364075 0.307691)
(0.798752 -0.560988 1.98558)
(0.700578 -0.57315 3.35069)
(0.456639 -0.496963 3.82826)
(-0.34369 -0.400539 -1.45183)
(-0.208098 -0.0622238 -2.35962)
(0.0108065 0.187962 -2.97364)
(0.243811 0.303175 -3.05224)
(0.48562 0.246345 -2.43397)
(0.727449 0.0343775 -1.14728)
(0.917005 -0.239922 0.482201)
(0.955634 -0.409254 2.09958)
(0.804793 -0.429179 3.35586)
(0.523962 -0.377881 3.72311)
(-0.35342 -0.179891 -1.04224)
(-0.218479 0.0654691 -1.88296)
(0.0291154 0.25468 -2.28756)
(0.31873 0.330178 -2.18939)
(0.621668 0.259241 -1.51302)
(0.891355 0.0719917 -0.292286)
(1.03924 -0.127414 1.18724)
(1.01083 -0.240589 2.56791)
(0.821624 -0.258386 3.4903)
(0.539173 -0.233261 3.61376)
(-0.297194 0.0534344 -0.178479)
(-0.159012 0.187565 -0.653644)
(0.0991004 0.285403 -0.762955)
(0.406298 0.305235 -0.472052)
(0.703521 0.23518 0.232368)
(0.912318 0.113172 1.26292)
(0.972735 -0.00900699 2.34002)
(0.878742 -0.0847621 3.14513)
(0.696882 -0.108068 3.48425)
(0.462739 -0.0863434 3.26095)
(0.396094 0.422406 2.95473)
(-0.0850547 0.491617 2.99495)
(-0.50374 0.204983 2.68093)
(-0.854115 -0.131569 2.61654)
(-1.01418 -0.320057 3.08647)
(-0.922942 -0.364436 3.86583)
(-0.673772 -0.335399 4.63261)
(-0.428808 -0.298078 5.13562)
(-0.318453 -0.296385 5.29103)
(-0.34876 -0.348668 4.99583)
(0.55725 0.485026 3.21881)
(0.166286 0.648269 3.26998)
(-0.156398 0.410055 2.81535)
(-0.497647 0.0419988 2.21452)
(-0.772771 -0.223647 2.15528)
(-0.825479 -0.35426 2.80461)
(-0.653477 -0.40516 3.86509)
(-0.407769 -0.424601 4.89495)
(-0.257213 -0.436646 5.43428)
(-0.271574 -0.462544 5.24405)
(0.610731 0.47286 3.0948)
(0.329295 0.736067 2.96062)
(0.181505 0.578213 2.10758)
(-0.0275492 0.277614 1.32442)
(-0.340178 0.0383374 1.09016)
(-0.541525 -0.119858 1.67878)
(-0.505241 -0.244492 2.90126)
(-0.318719 -0.384289 4.26166)
(-0.176894 -0.503513 5.13111)
(-0.208147 -0.560243 5.16552)
(0.494192 0.472036 2.61891)
(0.341361 0.83547 1.98665)
(0.329722 0.76012 0.618949)
(0.209714 0.563612 -0.248608)
(-0.058329 0.37872 -0.284983)
(-0.285268 0.212411 0.455881)
(-0.321841 0.0336062 2.06823)
(-0.191312 -0.260451 3.77618)
(-0.0695121 -0.51853 4.74974)
(-0.135711 -0.657542 4.9017)
(0.269421 0.496514 1.78397)
(0.231282 0.925537 0.618245)
(0.27616 0.930874 -0.912835)
(0.196095 0.849813 -1.74361)
(0.010712 0.722131 -1.67034)
(-0.152689 0.555182 -0.742847)
(-0.186062 0.328398 1.21861)
(-0.0657131 -0.101166 3.41564)
(0.0525259 -0.49275 4.38549)
(-0.030589 -0.720651 4.55515)
(0.0296745 0.50651 0.652752)
(0.0667959 0.942248 -0.652756)
(0.114076 1.03545 -2.08856)
(0.0624653 1.07039 -2.83944)
(-0.0240127 0.994929 -2.60081)
(-0.0987214 0.822388 -1.42512)
(-0.0887451 0.538747 0.774165)
(0.0687914 -0.00440212 3.10982)
(0.195127 -0.477594 4.05046)
(0.105685 -0.758942 4.19996)
(-0.17431 0.427701 -0.406257)
(-0.10378 0.861019 -1.59787)
(-0.0580404 1.04996 -2.8592)
(-0.0634236 1.16815 -3.39388)
(-0.0628087 1.13463 -2.88361)
(-0.0472217 0.941327 -1.42844)
(0.0446499 0.57421 0.7862)
(0.257288 -0.0240577 2.85794)
(0.388011 -0.519803 3.75647)
(0.281 -0.79343 3.92337)
(-0.347472 0.27509 -1.07972)
(-0.261114 0.706215 -2.06193)
(-0.182586 0.954738 -2.99432)
(-0.114653 1.10642 -3.21478)
(-0.0188482 1.07265 -2.4542)
(0.109488 0.830566 -0.91366)
(0.317397 0.370648 1.05961)
(0.555096 -0.20839 2.67845)
(0.644498 -0.633662 3.59561)
(0.493751 -0.836138 3.82839)
(-0.508831 0.100527 -1.25395)
(-0.386581 0.500828 -1.97834)
(-0.227825 0.740792 -2.4925)
(-0.0465052 0.853589 -2.35966)
(0.175436 0.767292 -1.48486)
(0.439212 0.460146 -0.0923166)
(0.728961 -0.0236657 1.52332)
(0.910791 -0.483948 2.76124)
(0.9042 -0.760678 3.68317)
(0.70519 -0.86092 3.8872)
(-0.647835 -0.0153762 -0.848648)
(-0.459377 0.287794 -1.31217)
(-0.189013 0.444727 -1.43464)
(0.124544 0.460722 -1.04131)
(0.471425 0.303159 -0.175513)
(0.81454 -0.00799142 1.02547)
(1.05558 -0.357488 2.23739)
(1.12233 -0.62678 3.26887)
(1.04856 -0.769564 3.84584)
(0.846438 -0.799742 3.76455)
(0.800843 0.796417 3.70237)
(0.622967 0.815466 4.14777)
(0.357363 0.573296 4.22339)
(-0.0162676 0.239159 4.10775)
(-0.406304 -0.0536829 3.71374)
(-0.675339 -0.252398 3.42428)
(-0.751603 -0.357135 3.67055)
(-0.703852 -0.409671 4.48516)
(-0.649935 -0.438498 5.37206)
(-0.641964 -0.461312 5.40246)
(0.9653 0.956069 3.40399)
(0.950589 0.987102 3.82625)
(0.903452 0.77193 3.64994)
(0.695241 0.453054 3.45384)
(0.265713 0.151623 3.39412)
(-0.21473 -0.0480082 3.24161)
(-0.478394 -0.146123 3.32115)
(-0.530107 -0.191756 4.25117)
(-0.512472 -0.251274 5.52982)
(-0.543157 -0.362908 5.82957)
(1.03116 1.16752 2.55201)
(1.04229 1.17978 2.47939)
(1.05491 0.989937 1.86398)
(0.910345 0.762359 1.56171)
(0.524493 0.536218 1.76944)
(0.0417974 0.350636 2.09788)
(-0.278329 0.254866 2.5847)
(-0.38894 0.204768 3.84822)
(-0.405773 0.0521261 5.41879)
(-0.454657 -0.184415 6.02129)
(1.04385 1.42078 1.83469)
(0.964854 1.37673 1.17139)
(0.870146 1.19979 0.279561)
(0.668781 1.07165 -0.124463)
(0.342305 0.915364 0.0783822)
(-0.00805604 0.745882 0.443213)
(-0.229884 0.66423 1.2803)
(-0.330684 0.626079 3.15115)
(-0.366515 0.353839 5.08782)
(-0.431742 -0.0524405 6.03048)
(0.984354 1.60947 1.45305)
(0.786461 1.50322 0.441554)
(0.535275 1.34347 -0.67277)
(0.254892 1.30653 -1.36028)
(0.00561184 1.19941 -1.38991)
(-0.188254 1.051 -0.976943)
(-0.320683 1.00081 0.30827)
(-0.397162 0.954733 2.62916)
(-0.404722 0.570531 4.83371)
(-0.433087 0.00547074 5.89027)
(0.821435 1.66114 1.33872)
(0.568587 1.54852 0.181865)
(0.210161 1.43035 -1.24043)
(-0.112371 1.46416 -2.25929)
(-0.296967 1.40192 -2.3346)
(-0.415169 1.29145 -1.53458)
(-0.523578 1.25601 0.262905)
(-0.575427 1.13669 2.78653)
(-0.50264 0.630138 4.90493)
(-0.437249 -0.0429688 5.74213)
(0.586573 1.55674 1.34812)
(0.359346 1.5101 0.115619)
(-0.0236094 1.46355 -1.54926)
(-0.346748 1.53544 -2.50895)
(-0.523083 1.51503 -2.25296)
(-0.653136 1.43868 -0.958769)
(-0.765353 1.36601 1.13288)
(-0.752714 1.1026 3.5028)
(-0.570164 0.479545 5.2639)
(-0.404507 -0.208741 5.62241)
(0.318489 1.29619 1.2193)
(0.161793 1.36392 0.0375845)
(-0.150625 1.38627 -1.37968)
(-0.441768 1.46839 -1.90288)
(-0.633652 1.46885 -1.20942)
(-0.784883 1.38646 0.423772)
(-0.851195 1.20449 2.53381)
(-0.722162 0.772737 4.43791)
(-0.44847 0.0827377 5.62942)
(-0.268028 -0.489019 5.45489)
(0.0435545 0.903694 0.920467)
(0.00844614 1.08949 0.137156)
(-0.160643 1.15022 -0.678976)
(-0.356716 1.20211 -0.688817)
(-0.500068 1.16253 0.30696)
(-0.578316 0.995199 1.9931)
(-0.51769 0.653311 3.75787)
(-0.291906 0.105939 5.03538)
(-0.0464474 -0.470469 5.55808)
(0.00728723 -0.817548 5.10435)
(-0.240799 0.446668 0.670343)
(-0.0722471 0.710957 0.353849)
(-0.0317986 0.762676 0.101478)
(-0.0495435 0.732203 0.439112)
(-0.044565 0.592681 1.44634)
(0.0285494 0.31896 2.81604)
(0.200223 -0.0861912 3.86927)
(0.375419 -0.510299 4.36588)
(0.478286 -0.840351 4.47353)
(0.39509 -0.987888 4.14837)
(0.743547 0.747039 0.990721)
(0.995753 0.840068 2.78111)
(1.09082 0.857144 3.94798)
(0.933346 0.731107 4.71198)
(0.567275 0.465906 5.13599)
(0.10549 0.18973 5.25337)
(-0.295932 0.00598054 5.18701)
(-0.487732 -0.0981228 4.98797)
(-0.486664 -0.137515 5.05562)
(-0.391544 -0.0899158 4.82218)
(0.733872 0.902367 0.463477)
(1.00379 0.916583 1.96172)
(1.15464 0.915659 2.8202)
(1.09339 0.823978 3.66723)
(0.79551 0.591666 4.47553)
(0.354288 0.318856 4.99577)
(-0.0521237 0.126951 5.21968)
(-0.259524 0.0752826 5.13112)
(-0.294688 0.1244 5.25139)
(-0.294356 0.169025 5.14532)
(0.707904 0.944842 0.244495)
(0.843343 0.893693 1.5309)
(0.847416 0.94132 1.98161)
(0.689953 0.945242 2.54857)
(0.434734 0.781971 3.37457)
(0.152367 0.531335 3.89697)
(-0.0492735 0.370648 3.94404)
(-0.108611 0.411907 4.13434)
(-0.164547 0.563267 4.78039)
(-0.222472 0.608343 4.92163)
(0.718753 0.964169 0.752653)
(0.621736 0.823218 1.96452)
(0.402281 0.920898 1.92076)
(0.112991 0.993563 1.79156)
(-0.0970848 0.85772 1.9787)
(-0.185184 0.62191 1.93732)
(-0.184021 0.513444 2.08784)
(-0.151916 0.689297 3.1838)
(-0.209078 0.988093 4.49075)
(-0.291906 1.02002 4.74973)
(0.781441 1.043 1.58664)
(0.438807 0.808732 2.53603)
(-0.00731275 0.908871 1.64962)
(-0.354231 0.963674 0.529969)
(-0.488911 0.807049 -0.0161224)
(-0.464955 0.611471 -0.0713555)
(-0.403252 0.612829 0.857883)
(-0.371121 0.922574 2.81827)
(-0.435574 1.28422 4.38935)
(-0.488989 1.28576 4.74482)
(0.895568 1.20874 2.37139)
(0.390474 0.940891 2.64377)
(-0.205828 0.952381 0.983534)
(-0.590136 0.919123 -0.533351)
(-0.730834 0.770513 -1.08507)
(-0.731785 0.664989 -0.553622)
(-0.721802 0.769376 1.15151)
(-0.748767 1.12096 3.36115)
(-0.795287 1.39209 4.64781)
(-0.770816 1.3246 4.92197)
(0.990946 1.39727 2.95433)
(0.470125 1.1509 2.69141)
(-0.204219 1.03036 0.910139)
(-0.682743 0.909561 -0.340237)
(-0.928517 0.790982 -0.350393)
(-1.05375 0.77105 0.856557)
(-1.16335 0.925942 2.79625)
(-1.25343 1.17968 4.43153)
(-1.22186 1.27514 5.24232)
(-1.06541 1.13732 5.21688)
(1.009 1.49479 3.27819)
(0.576158 1.31265 2.87964)
(-0.086542 1.06615 1.6204)
(-0.666005 0.879621 1.08679)
(-1.07993 0.787724 1.75428)
(-1.40033 0.806885 3.2427)
(-1.64114 0.906515 4.70561)
(-1.70185 0.975337 5.59732)
(-1.55721 0.902681 5.98256)
(-1.27122 0.770319 5.53558)
(0.979057 1.4415 3.36026)
(0.698898 1.32939 3.2049)
(0.143137 1.00257 2.70397)
(-0.467968 0.737946 2.8377)
(-1.01685 0.603246 3.79459)
(-1.47379 0.56271 4.99965)
(-1.73903 0.525578 5.92361)
(-1.74446 0.419817 6.4329)
(-1.55815 0.291412 6.48287)
(-1.28414 0.291108 5.70145)
(0.874516 1.13346 3.09669)
(0.852984 1.08982 3.17375)
(0.536815 0.772224 3.23364)
(0.0442418 0.427973 3.75153)
(-0.471543 0.178682 4.56328)
(-0.874765 0.00673376 5.3564)
(-1.08417 -0.15108 5.82057)
(-1.12657 -0.305105 5.96663)
(-1.08936 -0.362718 5.90612)
(-1.00382 -0.226549 5.31305)
(0.139741 0.895569 0.315116)
(0.296719 1.10221 2.40677)
(0.445692 1.25524 4.18176)
(0.500984 1.30239 5.80512)
(0.435193 1.17376 6.66895)
(0.328461 0.949579 6.78327)
(0.293288 0.736491 6.4232)
(0.431668 0.59807 5.73362)
(0.663954 0.605772 4.96993)
(0.812577 0.780365 4.1086)
(0.212544 0.652844 2.56127)
(0.239029 1.03405 4.08652)
(0.202854 1.29958 4.89475)
(0.174209 1.36649 5.9557)
(0.1458 1.2176 6.67589)
(0.135718 0.932675 6.84534)
(0.230603 0.643591 6.58433)
(0.493848 0.485796 5.79932)
(0.766256 0.578699 5.20884)
(0.861207 0.913356 4.34828)
(0.149872 0.253345 4.17566)
(0.0558368 0.759192 5.24946)
(-0.109549 1.14305 5.08818)
(-0.269608 1.22326 5.36037)
(-0.300872 1.04399 5.80186)
(-0.193685 0.699282 5.86027)
(0.022539 0.347066 5.09597)
(0.305521 0.175572 4.31994)
(0.669545 0.475452 4.85736)
(0.753709 0.996879 4.38792)
(-0.0362899 0.103542 4.88902)
(-0.27411 0.560182 5.45665)
(-0.496571 0.896768 4.67099)
(-0.658593 0.892796 4.2475)
(-0.644375 0.633583 3.92029)
(-0.508181 0.249887 2.97461)
(-0.327974 -0.109638 2.1694)
(-0.068486 -0.163169 2.92099)
(0.336873 0.393418 5.03904)
(0.429285 1.0717 4.94201)
(-0.180771 0.256214 5.03201)
(-0.535334 0.529803 4.83779)
(-0.765419 0.644662 3.59847)
(-0.873212 0.493602 2.51652)
(-0.85884 0.165053 1.3121)
(-0.787713 -0.201861 0.316937)
(-0.658638 -0.433252 0.621053)
(-0.440847 -0.305543 2.73842)
(-0.0848048 0.439387 5.78165)
(-0.0171066 1.16017 5.61723)
(-0.136338 0.571882 5.00325)
(-0.571458 0.606571 4.27775)
(-0.851726 0.43687 2.73387)
(-1.02015 0.112555 1.23129)
(-1.10446 -0.219212 0.00941368)
(-1.09153 -0.468308 -0.209904)
(-0.982501 -0.537742 1.15596)
(-0.784141 -0.252065 3.95096)
(-0.558587 0.482359 6.37473)
(-0.504619 1.13766 5.86044)
(0.0448206 0.926586 4.97284)
(-0.470776 0.738564 4.35483)
(-0.922006 0.309939 3.09342)
(-1.26709 -0.130511 1.81348)
(-1.44421 -0.41799 1.1887)
(-1.44697 -0.538584 1.79613)
(-1.32995 -0.464442 3.73185)
(-1.15582 -0.10982 6.07326)
(-1.0661 0.452162 7.03334)
(-0.982803 0.98832 5.96464)
(0.309892 1.22776 4.98564)
(-0.244651 0.906128 4.9283)
(-0.891602 0.322466 4.59609)
(-1.40318 -0.157583 4.27294)
(-1.70248 -0.413617 4.37812)
(-1.77309 -0.464962 5.36548)
(-1.71509 -0.350321 6.67808)
(-1.63495 -0.0948791 7.59783)
(-1.54869 0.283205 7.6199)
(-1.38068 0.712679 6.17012)
(0.667318 1.42781 4.87715)
(0.220333 1.08699 5.5601)
(-0.475835 0.454752 5.95059)
(-1.1137 -0.0817118 6.29324)
(-1.57541 -0.378066 6.71222)
(-1.83438 -0.473184 7.41425)
(-1.92873 -0.438479 8.05273)
(-1.91 -0.304407 8.30083)
(-1.81986 -0.0447156 7.9485)
(-1.60182 0.352703 6.48702)
(1.08749 1.37723 4.34749)
(0.894567 1.06554 5.3945)
(0.38322 0.487452 6.14642)
(-0.193323 -0.0976172 6.50271)
(-0.732025 -0.493966 6.67317)
(-1.15729 -0.693775 7.03235)
(-1.44109 -0.75117 7.42077)
(-1.59345 -0.688763 7.68172)
(-1.64871 -0.472389 7.58971)
(-1.54236 -0.0844866 6.58875)
(0.147478 0.791577 2.82421)
(-0.122332 1.21771 4.09329)
(-0.327465 1.41577 4.90482)
(-0.361303 1.44218 6.17373)
(-0.289281 1.34747 7.33465)
(-0.160928 1.14316 8.01656)
(0.00102078 0.800589 8.04327)
(0.245608 0.420904 7.36727)
(0.595275 0.269571 6.70548)
(0.914225 0.633951 5.76709)
(0.270575 0.613402 5.95892)
(-0.0174199 1.26221 7.06163)
(-0.348853 1.55639 7.05223)
(-0.494319 1.59467 7.60281)
(-0.477487 1.46373 8.48355)
(-0.384164 1.14197 8.92915)
(-0.313443 0.580864 8.35068)
(-0.232368 -0.0654144 7.17994)
(-0.00733556 -0.291187 7.05816)
(0.353636 0.276911 6.89954)
(0.126874 0.386937 7.42182)
(-0.0702484 1.08072 8.23972)
(-0.389805 1.44942 7.9346)
(-0.592244 1.50833 8.02174)
(-0.624716 1.3268 8.38254)
(-0.600778 0.870812 8.14544)
(-0.659411 0.105882 6.58155)
(-0.747697 -0.664119 5.36651)
(-0.705203 -0.908342 6.044)
(-0.355758 -0.205186 6.72658)
(-0.181583 0.300591 7.6308)
(-0.328644 0.868436 8.28295)
(-0.543178 1.16448 7.99156)
(-0.679158 1.18429 7.72686)
(-0.721689 0.916402 7.19061)
(-0.774684 0.326792 5.80619)
(-0.915634 -0.441826 4.08508)
(-1.10902 -1.0815 3.72845)
(-1.20698 -1.23145 5.16688)
(-0.971658 -0.561672 6.24669)
(-0.40791 0.285525 7.33292)
(-0.516295 0.566039 7.66079)
(-0.625912 0.612865 7.06823)
(-0.70994 0.474494 6.01238)
(-0.824495 0.145293 4.67857)
(-0.982347 -0.382092 3.18379)
(-1.15394 -0.940664 2.36496)
(-1.35535 -1.30062 3.05707)
(-1.47713 -1.23693 4.98849)
(-1.30572 -0.667787 6.00787)
(-0.476102 0.239901 7.09759)
(-0.649912 0.117739 6.87221)
(-0.831182 -0.171694 5.60897)
(-0.971211 -0.412303 4.07244)
(-1.15461 -0.646138 2.79168)
(-1.2979 -0.964362 1.83998)
(-1.42169 -1.23937 2.04778)
(-1.55001 -1.30436 3.60581)
(-1.57552 -1.0472 5.55163)
(-1.4067 -0.595351 6.01789)
(-0.526321 0.192443 7.21839)
(-0.952713 -0.312306 6.67426)
(-1.35739 -0.876113 5.20756)
(-1.55902 -1.15906 3.71621)
(-1.67201 -1.24581 2.75646)
(-1.70305 -1.30731 2.5723)
(-1.71432 -1.31914 3.59167)
(-1.69193 -1.15949 5.30124)
(-1.56864 -0.833276 6.52822)
(-1.39607 -0.501798 6.16284)
(-0.547045 0.22076 7.59539)
(-1.23915 -0.526616 7.34124)
(-1.86156 -1.26038 6.28121)
(-2.14932 -1.60597 5.32127)
(-2.17411 -1.59306 4.76624)
(-2.07535 -1.44391 5.04779)
(-1.90587 -1.24771 6.06611)
(-1.72927 -1.01225 7.07513)
(-1.5549 -0.744675 7.49296)
(-1.35389 -0.49735 6.38843)
(-0.253671 0.418486 7.84763)
(-0.94635 -0.412841 8.31528)
(-1.67253 -1.22194 7.85431)
(-2.10816 -1.62999 7.44991)
(-2.24771 -1.61835 7.26774)
(-2.15583 -1.39581 7.44381)
(-1.97298 -1.15413 7.88934)
(-1.77449 -0.949618 8.22477)
(-1.59077 -0.758423 8.05286)
(-1.32288 -0.565296 6.57792)
(0.520805 0.613414 7.03724)
(0.0852418 -0.139423 8.06814)
(-0.581106 -0.946475 7.87337)
(-1.17206 -1.43992 7.74705)
(-1.5981 -1.50261 7.77586)
(-1.78208 -1.3243 7.85028)
(-1.78422 -1.10326 7.88091)
(-1.70327 -0.920631 7.80993)
(-1.56177 -0.773622 7.40535)
(-1.26272 -0.600127 6.05418)
(0.293771 0.47793 4.56937)
(0.00718636 0.774866 6.76741)
(-0.222254 0.877339 7.81615)
(-0.294657 0.803019 8.66298)
(-0.259392 0.625516 9.30661)
(-0.217709 0.387302 9.66437)
(-0.343837 -0.00358794 9.5176)
(-0.705532 -0.596697 8.73208)
(-0.999461 -0.972881 8.28563)
(-0.842856 -0.604162 7.65717)
(0.349618 0.396084 7.71682)
(0.0665754 0.865149 9.69636)
(-0.156907 1.00803 10.0895)
(-0.212896 0.92847 10.2949)
(-0.167916 0.773522 10.6411)
(-0.139357 0.559841 10.8697)
(-0.317499 0.0950202 10.4748)
(-0.891745 -0.748126 8.8524)
(-1.55199 -1.37166 7.95376)
(-1.65795 -1.19234 7.53068)
(0.245191 0.331656 9.26885)
(0.0282071 0.844766 10.7613)
(-0.175376 1.07807 11.0221)
(-0.238639 1.06409 11.0743)
(-0.166797 0.909122 11.1838)
(-0.112745 0.638333 11.275)
(-0.266167 0.0931358 10.7025)
(-0.829797 -0.831596 8.7441)
(-1.63751 -1.59463 7.23349)
(-1.91957 -1.6353 6.85494)
(0.0547034 0.185961 9.51099)
(-0.0866028 0.652321 10.8464)
(-0.222852 0.960892 11.2331)
(-0.286068 1.06768 11.4678)
(-0.235796 0.92233 11.5547)
(-0.168688 0.531394 11.3894)
(-0.249035 -0.110715 10.475)
(-0.622907 -0.949581 8.76391)
(-1.31131 -1.6438 7.06214)
(-1.66751 -1.83204 6.14554)
(-0.0542198 -0.123633 9.20116)
(-0.138649 0.181042 10.3757)
(-0.227883 0.494824 10.9023)
(-0.340852 0.713105 11.5028)
(-0.380888 0.604328 11.4924)
(-0.305071 0.102746 9.8343)
(-0.310129 -0.529064 8.25186)
(-0.502872 -1.13729 7.66518)
(-0.96112 -1.60381 7.17973)
(-1.20964 -1.71702 5.78842)
(-0.120408 -0.567728 8.98844)
(-0.269891 -0.517701 9.69067)
(-0.408797 -0.323862 9.95973)
(-0.59656 -0.0181403 10.8222)
(-0.644918 -0.00645441 9.99038)
(-0.558686 -0.377712 7.72007)
(-0.546991 -0.835762 6.67755)
(-0.654596 -1.2157 7.10136)
(-0.893214 -1.42794 7.41841)
(-0.94123 -1.41913 5.80787)
(-0.356423 -0.971524 9.11687)
(-0.710379 -1.20332 9.31248)
(-0.948626 -1.16027 8.93699)
(-1.11777 -0.805039 9.11134)
(-1.10641 -0.563572 8.41472)
(-0.992708 -0.683463 7.11481)
(-1.0201 -0.976037 7.33495)
(-1.11163 -1.13205 8.19892)
(-1.12618 -1.10416 7.9334)
(-0.901851 -1.05326 5.89327)
(-0.739386 -1.18886 9.43027)
(-1.31512 -1.68518 9.38303)
(-1.67829 -1.81174 8.62692)
(-1.81923 -1.46093 8.13258)
(-1.76886 -1.02231 7.97257)
(-1.61072 -0.890664 7.91301)
(-1.56606 -0.97117 8.76138)
(-1.43714 -0.95787 8.59083)
(-1.25362 -0.8988 7.72507)
(-0.903703 -0.875459 5.37283)
(-0.864784 -1.17194 9.55952)
(-1.51545 -1.87558 9.61923)
(-2.05075 -2.152 9.00166)
(-2.33283 -1.85493 8.38749)
(-2.25139 -1.31707 8.02343)
(-2.00554 -0.956474 8.2416)
(-1.7274 -0.838207 8.64444)
(-1.43502 -0.825601 8.27755)
(-1.14417 -0.877684 7.04879)
(-0.80042 -0.939965 4.28244)
(-0.39679 -0.935256 8.47422)
(-0.969604 -1.72165 8.84554)
(-1.62475 -2.06054 8.65462)
(-2.19411 -1.83492 8.26683)
(-2.33264 -1.28492 7.84578)
(-2.05185 -0.82059 7.5789)
(-1.64631 -0.616717 7.38574)
(-1.25519 -0.628149 6.57944)
(-0.906245 -0.77381 4.8466)
(-0.553049 -0.921582 2.09379)
(0.114151 0.0463669 5.82989)
(0.0712041 0.0993255 8.38617)
(0.108311 0.0209068 9.19337)
(0.25108 -0.121642 9.43068)
(0.353179 -0.244513 9.69774)
(0.311198 -0.303264 10.3657)
(0.0579273 -0.373005 11.3532)
(-0.499408 -0.671956 11.6847)
(-1.09757 -1.02807 11.3449)
(-1.20236 -0.927366 10.095)
(0.169429 0.257622 8.87864)
(0.0890273 0.402842 11.13)
(0.0917946 0.259657 11.199)
(0.262442 -0.00346161 10.643)
(0.475575 -0.199488 10.2614)
(0.58581 -0.22132 10.5908)
(0.476058 -0.19149 11.6933)
(-0.074279 -0.479425 12.4433)
(-0.966592 -1.05566 11.9222)
(-1.40231 -1.29162 10.3672)
(0.23184 0.348016 10.2829)
(0.124627 0.559776 12.289)
(0.0613962 0.474751 12.3359)
(0.194875 0.200634 11.4208)
(0.479235 -0.066601 10.2933)
(0.737059 -0.151635 9.96905)
(0.819584 -0.136892 10.777)
(0.531281 -0.322962 11.7631)
(-0.237331 -0.84761 11.965)
(-0.841133 -1.34219 10.5225)
(0.25243 0.247149 10.8177)
(0.172508 0.472822 12.7555)
(0.0864713 0.510048 13.0288)
(0.169472 0.365512 12.119)
(0.484163 0.0871481 10.2172)
(0.821132 -0.0773789 8.94411)
(1.03207 -0.163548 9.24397)
(1.02227 -0.324851 10.115)
(0.625712 -0.695676 10.7715)
(0.110088 -1.17628 10.1355)
(0.261079 -0.0321034 10.792)
(0.223159 0.139566 12.6948)
(0.161257 0.28919 13.1316)
(0.217544 0.353491 12.2707)
(0.543439 0.218748 9.75303)
(0.844008 0.0691334 7.53066)
(1.03228 -0.118755 7.08602)
(1.17828 -0.342643 7.7752)
(1.15344 -0.648955 8.76763)
(0.932207 -0.977236 8.72036)
(0.286464 -0.409329 10.5346)
(0.229293 -0.335862 12.3575)
(0.195111 -0.0833202 12.7679)
(0.299163 0.225792 11.8337)
(0.629694 0.318821 9.05706)
(0.840383 0.183182 6.70494)
(0.901511 -0.0992287 6.18094)
(0.968109 -0.374409 6.71799)
(1.04974 -0.606925 7.49962)
(1.10962 -0.793938 7.46062)
(0.206421 -0.793357 10.4775)
(0.0608984 -0.850206 12.1978)
(0.0406855 -0.522984 12.4412)
(0.24471 0.0249158 11.4404)
(0.621055 0.320959 8.76348)
(0.765993 0.208153 6.87887)
(0.655978 -0.142763 7.20448)
(0.459472 -0.456862 8.45119)
(0.363447 -0.597279 9.09569)
(0.596868 -0.582826 7.88591)
(-0.0796657 -1.09947 10.9892)
(-0.398237 -1.31695 12.3986)
(-0.451981 -1.02538 12.5715)
(-0.161932 -0.327903 11.6351)
(0.31759 0.189439 9.30869)
(0.476901 0.178162 7.84674)
(0.242648 -0.145291 8.7692)
(-0.311786 -0.439487 10.4729)
(-0.627556 -0.466178 10.724)
(-0.236211 -0.336739 8.66256)
(-0.389391 -1.23254 11.4474)
(-0.863399 -1.57498 12.461)
(-1.06377 -1.41338 12.6072)
(-0.913504 -0.755211 12.1141)
(-0.345635 -0.0740105 10.1679)
(0.001801 0.106679 8.60924)
(-0.17973 -0.108314 9.30483)
(-0.666221 -0.347088 10.5787)
(-0.940481 -0.409864 9.81758)
(-0.70198 -0.31528 6.57235)
(-0.381949 -1.09781 10.1853)
(-0.866725 -1.4791 11.0537)
(-1.21432 -1.40207 11.3692)
(-1.31896 -0.913885 11.232)
(-0.91078 -0.218938 10.1354)
(-0.309493 0.133011 8.26864)
(-0.142428 0.102655 7.94601)
(-0.353523 -0.0912041 8.70448)
(-0.495107 -0.320102 7.43942)
(-0.461029 -0.583228 3.57415)
(-0.251605 -0.160356 6.93975)
(-0.223271 -0.339589 9.19444)
(-0.0906357 -0.548852 10.0241)
(0.13443 -0.694844 10.6245)
(0.304421 -0.715403 11.204)