/*--------------------------------*- C++ -*----------------------------------*\
| =========                 |                                                 |
| \\      /  F ield         | OpenFOAM: The Open Source CFD Toolbox           |
|  \\    /   O peration     | Version:  2406                                  |
|   \\  /    A nd           | Website:  www.openfoam.com                      |
|    \\/     M anipulation  |                                                 |
\*---------------------------------------------------------------------------*/
FoamFile
{
    version     2.0;
    format      ascii;
    arch        "LSB;label=32;scalar=64";
    class       volScalarField;
    location    "200";
    object      div(phi);
}
// * * * * * * * * * * * * * * * * * * * * * * * * * * * * * * * * * * * * * //

dimensions      [0 0 -1 0 0 0 0];

internalField   nonuniform List<scalar> 
25000
(
0.05066
-0.00180249
-0.00115133
-0.000773265
-0.00049317
-0.000374672
-0.000301992
-0.000219175
-0.000252838
-0.00035728
-0.000600594
-0.000382661
-0.000515584
-0.000455041
-0.000431205
-0.000258393
-0.000254155
-0.000208432
-0.000174387
-0.000268363
0.000204931
-0.000161588
-0.000457051
-0.000387073
-0.000319242
-0.000291873
-0.000209143
-0.000200223
-0.00020418
-0.000172014
-0.000204358
-0.000184975
-0.000167262
-0.000297414
-0.000282509
-0.00020983
-0.000217042
-0.00020327
-0.000166908
-0.000188966
5.36861e-05
-4.49027e-07
-0.000222895
-0.000196757
-0.000198503
-0.000210408
-0.000172696
-0.000161292
-0.000203535
-0.000165554
-0.000160015
-0.000105689
-5.10077e-05
-0.000161213
-0.000160174
-0.000142666
-0.000154784
-0.000182392
-0.000129164
-0.000179519
-4.0561e-05
2.98832e-05
-0.000104493
-7.20211e-05
-0.000111913
-0.000114527
-0.000119877
-0.000102991
-0.000165929
-0.000138349
-0.000104578
-5.18559e-05
-3.36414e-06
-7.01595e-05
-7.68502e-05
-7.2069e-05
-0.000100104
-0.000106979
-0.000102775
-0.00012447
-0.000128785
2.43992e-05
-3.98115e-05
-8.3722e-05
-6.96229e-05
-0.000118146
-6.52656e-05
-0.000105088
-0.000115298
-0.000139387
-0.000222755
-0.000142669
-0.000103553
-0.000122242
-0.000147105
-0.000113897
-0.000127255
-9.83263e-05
-0.000144968
-0.000242807
0.000384264
-3.33921e-05
-9.75949e-05
-0.000145095
-0.000124283
-0.000184489
-0.00019783
-0.00016443
-0.000434243
-0.000308187
0.000207715
-5.62229e-06
-8.2308e-05
-0.000107137
-0.000168154
-0.000111132
-0.000171149
-0.000216171
-0.000150376
-0.000214642
0.000342391
5.74303e-05
-9.43311e-05
-9.75419e-05
-0.000101201
-0.000146308
-0.000127567
-0.00010138
-0.000171014
-6.03155e-05
0.000100591
4.50159e-06
1.24747e-05
-7.44757e-05
-0.000102639
-8.01661e-05
-0.00010308
-0.000116666
-8.93671e-05
-6.34172e-05
0.000137833
6.7279e-05
-4.15529e-05
-4.79809e-05
-6.55027e-05
-8.79376e-05
-8.74026e-05
-7.94277e-05
-8.37456e-05
-7.16301e-05
2.70127e-05
-5.79306e-06
6.74306e-06
-5.65306e-05
-6.31135e-05
-7.422e-05
-7.83273e-05
-7.68543e-05
-9.42283e-05
-5.71987e-05
1.14768e-05
-3.63321e-06
-5.46125e-05
-4.26983e-05
-7.10939e-05
-6.3091e-05
-8.77924e-05
-0.000104704
-6.91807e-05
-9.96849e-05
-7.35947e-05
-6.11605e-05
-5.15843e-05
-6.37868e-05
-5.48057e-05
-8.65813e-05
-9.24337e-05
-8.68248e-05
-0.000156222
-4.55486e-05
-0.000234945
-0.000131515
-7.35725e-05
-8.18044e-05
-7.21693e-05
-7.47047e-05
-9.83978e-05
-0.00015326
-0.000147564
-0.000233513
-0.00025046
-0.000161735
-5.9892e-05
-8.74757e-05
-8.74017e-05
-9.13803e-05
-0.000101584
-7.53915e-05
-0.000253256
-0.000141885
-0.000574554
-0.000516662
-0.000291189
-0.000252471
-0.000197998
-0.00016518
-0.000175884
-8.33477e-05
-0.000416393
-0.000251029
-0.000433345
-0.000234913
-0.000214673
-0.000164712
-0.000132308
-9.51979e-05
-7.93076e-05
-0.000103812
-6.11675e-05
-0.000228158
-0.000135672
-0.000166216
-0.000149432
-0.000135247
-0.000102744
-8.00671e-05
-6.23525e-05
-3.04625e-05
-5.17824e-05
-3.14517e-05
-0.000107792
-0.000100414
-0.000112959
-9.85151e-05
-8.02005e-05
-5.16815e-05
-3.02821e-05
-2.55175e-05
-3.12108e-06
-2.34508e-05
-7.67466e-05
-6.35267e-05
-7.39746e-05
-7.00694e-05
-5.36013e-05
-3.78335e-05
-1.43072e-05
-6.18423e-07
1.15473e-05
-2.96775e-05
-2.32911e-05
-3.93313e-05
-4.99546e-05
-5.24045e-05
-3.31241e-05
-1.69918e-05
-9.82815e-07
1.31636e-05
9.49956e-06
-1.7626e-05
-1.60107e-05
-3.22106e-05
-3.72757e-05
-1.9664e-05
-1.35635e-05
5.33445e-06
1.7988e-05
6.01733e-06
4.19046e-05
-4.40234e-05
1.55775e-05
-2.42775e-05
-1.63594e-05
2.44503e-08
1.52254e-05
2.15523e-05
1.76814e-05
3.63199e-05
-4.02746e-05
3.43107e-05
-0.000191288
-3.16775e-05
1.79651e-05
1.64643e-05
4.16481e-05
2.96066e-05
4.00616e-05
-3.92734e-05
2.89588e-06
-0.000239385
-4.11349e-05
-0.000131557
5.94527e-05
1.1671e-05
-1.70491e-06
-6.37182e-07
-2.38618e-05
-1.5887e-05
-0.000245024
-0.000117503
0.00114926
0.000802753
0.000747131
0.000702731
0.000652327
0.000643253
0.000640313
0.000752019
0.000793632
0.000791393
0.000734605
0.000604559
0.000533253
0.000494516
0.00042444
0.000443763
0.000469222
0.000481903
0.00058709
0.0004014
0.00070914
0.000532694
0.000424892
0.000407896
0.000372451
0.000342111
0.000392521
0.000425644
0.000445779
0.000348513
0.000577835
0.000410788
0.00042411
0.000336949
0.000298958
0.00031891
0.000317429
0.000346609
0.000446315
0.000306648
0.000597481
0.000443692
0.000310256
0.000316832
0.000290923
0.000245828
0.000328151
0.000358864
0.000364585
0.000315912
0.000532617
0.000342969
0.000382104
0.000301395
0.000278688
0.000314671
0.000306724
0.000337278
0.000429935
0.000292593
0.000599581
0.000475044
0.000367358
0.000389703
0.000359089
0.000329308
0.00040906
0.000431819
0.000422329
0.000349391
0.000612907
0.000472924
0.000481131
0.000425965
0.00039479
0.000438933
0.000433853
0.000454533
0.000522996
0.000359594
0.000761566
0.000589681
0.000517111
0.000443817
0.000442864
0.000413457
0.000499257
0.000529846
0.000564882
0.000453384
0.000737376
0.000367775
0.000329097
0.000303733
0.000285538
0.000334765
0.000390263
0.000403465
0.000542496
0.000415202
0.00117181
0.00102807
0.000829275
0.000773083
0.000736032
0.000813293
0.000827139
0.00090501
0.00123791
0.0007926
0.000797007
0.000669287
0.000585506
0.000543464
0.000496548
0.000523552
0.000597223
0.000646709
0.000718229
0.00052561
0.000597125
0.000552217
0.000465997
0.000452641
0.000424264
0.000424198
0.000500087
0.000522306
0.000564377
0.000355676
0.000523066
0.000433862
0.000453878
0.000376255
0.000354728
0.000388674
0.000401413
0.000445319
0.00054204
0.000303196
0.000569915
0.000474625
0.000343338
0.000369266
0.000352628
0.000311404
0.000429672
0.000455118
0.000441488
0.000335965
0.000518592
0.000385245
0.000452127
0.000374023
0.000354144
0.000417403
0.00040757
0.000433272
0.000551033
0.000305675
0.000659019
0.000593214
0.000470443
0.000505337
0.000480687
0.00044043
0.000557778
0.000583406
0.000515498
0.000419159
0.000725222
0.000615021
0.000646845
0.00056942
0.000526487
0.000603452
0.000585515
0.000593551
0.000735815
0.000359489
0.00112301
0.000830769
0.00068433
0.000604184
0.000594857
0.000544737
0.00067717
0.000740444
0.000706808
0.000754263
0.000893238
0.000636818
0.000424673
0.000417678
0.000392873
0.000457128
0.000513885
0.000503265
0.000856971
0.000378312
0.00117496
0.000984851
0.000836511
0.000788146
0.00072677
0.000768348
0.000749917
0.000824059
0.00103114
0.000732442
0.000774347
0.000630411
0.000572154
0.000521124
0.000467272
0.000488847
0.000535117
0.000567917
0.000636529
0.000464481
0.000614638
0.000545683
0.00046094
0.000447892
0.000417082
0.000401507
0.000465051
0.000485558
0.000501842
0.00035547
0.000523613
0.000428207
0.000455888
0.000384198
0.000356238
0.000382953
0.000384233
0.000413613
0.000499006
0.00030454
0.000543996
0.000463468
0.000354545
0.00037497
0.000356232
0.000310753
0.000409035
0.000430748
0.00040321
0.00033401
0.000500417
0.000378191
0.000441177
0.000374127
0.000351353
0.000402959
0.000387474
0.000401766
0.000503313
0.000303439
0.000602757
0.000547563
0.000447915
0.000477992
0.000453319
0.000412473
0.000508543
0.000529896
0.00046209
0.000393014
0.000671875
0.000556554
0.000588766
0.000522424
0.000482068
0.000544125
0.000522988
0.000526951
0.000633702
0.000349615
0.000955447
0.000724857
0.000606728
0.000537519
0.000527266
0.000476903
0.000585441
0.000623668
0.000600153
0.000614975
0.000822216
0.00056089
0.000410761
0.000389216
0.000357477
0.000402801
0.000434903
0.000428188
0.000675301
0.000337301
0.000883555
0.000726159
0.000654512
0.000619146
0.000592614
0.000617064
0.000624839
0.000689204
0.000832735
0.000722684
0.000639648
0.000510912
0.000480016
0.000442483
0.000410387
0.000416733
0.000449128
0.000469468
0.000536262
0.000464802
0.000515781
0.000443472
0.000400299
0.000394385
0.000373112
0.000359675
0.000400264
0.000428974
0.000440838
0.000390569
0.000450747
0.000359299
0.000382594
0.000344542
0.000326639
0.000342124
0.000350536
0.000375498
0.000436741
0.000350947
0.000455715
0.000367607
0.000311144
0.000329347
0.000319606
0.000294677
0.000356417
0.000381434
0.000378582
0.000362395
0.00041872
0.000311988
0.000356748
0.000325025
0.000309673
0.000342554
0.000340091
0.000365746
0.000425647
0.000347531
0.000479215
0.000410158
0.000362274
0.000379762
0.000370293
0.000344258
0.000408604
0.000428753
0.000411246
0.000389758
0.00051671
0.000419039
0.000444013
0.000407759
0.000383571
0.000415984
0.000416754
0.000431007
0.000501334
0.000371577
0.000694699
0.000522926
0.000447387
0.000418468
0.000398513
0.000389471
0.000443193
0.000491518
0.000483153
0.000526504
0.000616489
0.000420651
0.000339943
0.00032519
0.000324667
0.000351254
0.000391367
0.00040204
0.000565596
0.000406208
0.000739586
0.000592087
0.000532977
0.000491383
0.000450535
0.000479099
0.000468629
0.000495539
0.000622338
0.000528733
0.000437282
0.000352106
0.000326162
0.000312705
0.000309334
0.000294712
0.000336299
0.000365043
0.000346815
0.000328019
0.000322571
0.000278713
0.000287878
0.000278081
0.000263977
0.000280656
0.000289886
0.000287861
0.000325616
0.000264103
0.000269896
0.000245177
0.000245064
0.00024432
0.000243535
0.000236339
0.000256034
0.000278751
0.000276137
0.000240748
0.000252922
0.000218949
0.000220503
0.000229577
0.000223122
0.000224243
0.000250739
0.000253018
0.000261695
0.000238368
0.000232426
0.000207576
0.000228696
0.000227819
0.000222641
0.000233938
0.000238994
0.000256058
0.000272156
0.000231215
0.000265263
0.000253338
0.000244547
0.000252058
0.000248002
0.000237017
0.000275042
0.000279529
0.00027091
0.000257703
0.000314919
0.000263805
0.000288457
0.000266076
0.000251939
0.000274043
0.000269375
0.000288499
0.000319622
0.000249505
0.000409434
0.000349179
0.000281027
0.000275661
0.0002583
0.000247737
0.000290683
0.000307488
0.000310896
0.000335816
0.000421255
0.000290457
0.000253152
0.000237027
0.000231822
0.000245323
0.00025623
0.000261169
0.000353172
0.000265982
0.000994399
0.000703926
0.000632682
0.000565395
0.000528142
0.000514621
0.00050697
0.000519912
0.000605229
0.000611642
0.000677277
0.000467226
0.000410109
0.000392047
0.000353905
0.000331755
0.000338945
0.00034863
0.000341504
0.000358617
0.000562881
0.000386285
0.000366051
0.000340489
0.000308721
0.000295282
0.000290957
0.000287007
0.000302916
0.000298244
0.000496086
0.000332403
0.000318897
0.0002941
0.000271122
0.000250693
0.000251328
0.000260648
0.00026404
0.000264055
0.000464733
0.000299402
0.000274992
0.000265313
0.000241293
0.000226387
0.000233734
0.000238022
0.000238488
0.000253087
0.000434888
0.000270944
0.000268564
0.000242861
0.000229547
0.000219483
0.000219748
0.000227727
0.000244002
0.000239869
0.000452301
0.000283109
0.000253277
0.000253845
0.000227287
0.000218627
0.000234927
0.000244022
0.000237357
0.000255662
0.000447312
0.000284668
0.000269932
0.000244107
0.000227574
0.00023592
0.000232307
0.000247319
0.00027311
0.000254347
0.000522163
0.000290632
0.000265471
0.000232058
0.000228144
0.000211401
0.000243823
0.000262514
0.000267324
0.000311262
0.000514567
0.000284435
0.000232423
0.000217919
0.000203556
0.000217264
0.000232121
0.000248225
0.000317598
0.000309574
0.000520657
0.000376935
0.000359
0.000319805
0.000303237
0.000328506
0.000321668
0.000329586
0.000413298
0.000373353
0.000336774
0.000238085
0.000196509
0.000207485
0.000209721
0.000188154
0.000220807
0.000239964
0.000190876
0.000209601
0.000254521
0.000167556
0.000197826
0.00017836
0.00016758
0.000189439
0.000178238
0.000165264
0.00019792
0.000159735
0.00024475
0.000172162
0.000144847
0.000156924
0.000158456
0.000139677
0.000158118
0.000169157
0.000142688
0.000143438
0.000218277
0.000133587
0.000150601
0.000143161
0.000134485
0.000144244
0.000143944
0.00013884
0.000144569
0.000133249
0.000225006
0.000148795
0.000136853
0.000138353
0.000139245
0.000130673
0.000140071
0.000144335
0.000139851
0.00012835
0.000239877
0.000149779
0.000146986
0.000147694
0.000134795
0.000138715
0.000151024
0.000149612
0.000143491
0.000144642
0.000266211
0.000165787
0.000158617
0.000146464
0.000139662
0.000153202
0.000144802
0.000163057
0.000167807
0.000146336
0.000315364
0.000183873
0.00016239
0.00014622
0.000150465
0.000130148
0.000167293
0.000161618
0.000170402
0.000187981
0.000350619
0.00019866
0.000168954
0.000162032
0.000145822
0.000157602
0.000152809
0.00015945
0.000198356
0.000182269
0.000728377
0.000481245
0.000445889
0.000417722
0.000388852
0.000364581
0.00036168
0.000361494
0.000416056
0.000471054
0.000496135
0.000327877
0.000310141
0.0002848
0.000257211
0.000239111
0.000229805
0.00023737
0.000236915
0.000275813
0.000410872
0.000283373
0.000259468
0.000252571
0.000227782
0.000207381
0.000204944
0.000201196
0.000210144
0.000238095
0.000331105
0.000227534
0.000238504
0.000217382
0.000198517
0.00018463
0.000175886
0.000182532
0.000189489
0.000214214
0.000308345
0.000213873
0.000197478
0.000196845
0.000180477
0.000163244
0.000165902
0.000170616
0.000172183
0.000205722
0.000275108
0.000184766
0.000194926
0.000181864
0.000166227
0.000160561
0.000154829
0.000161643
0.000175942
0.000198513
0.000282385
0.000195566
0.000182914
0.000178302
0.000166078
0.000151478
0.00015823
0.000169919
0.000170861
0.000206608
0.000283305
0.000189016
0.000188188
0.000171942
0.00015868
0.00015496
0.000160061
0.000165704
0.000190523
0.000212352
0.000313918
0.000199637
0.00017198
0.000163529
0.000145474
0.000150435
0.000151621
0.000181722
0.000184155
0.000235043
0.00033968
0.000190974
0.000168758
0.000152487
0.000152367
0.000154571
0.000176153
0.000192062
0.000232385
0.000277271
-0.000182649
-9.82598e-05
-0.000100864
-8.64443e-05
-7.253e-05
-3.55816e-05
-1.42522e-05
7.41575e-06
3.96741e-05
2.09768e-05
-0.000141115
-9.3883e-05
-7.69283e-05
-6.19154e-05
-3.68571e-05
-1.67972e-05
5.39031e-06
2.61266e-05
2.39184e-05
2.22702e-05
-9.49464e-05
-6.44103e-05
-5.36297e-05
-3.80203e-05
-2.02091e-05
-8.60817e-07
1.70718e-05
2.26711e-05
3.19937e-05
2.35901e-05
-6.29445e-05
-3.93926e-05
-2.84306e-05
-1.68676e-05
-1.864e-06
1.39275e-05
2.28598e-05
3.16399e-05
3.56703e-05
2.68866e-05
-2.95834e-05
-1.36841e-05
-9.38111e-06
4.84779e-06
1.61827e-05
2.21772e-05
3.70012e-05
4.22096e-05
3.38123e-05
3.79695e-05
-1.27586e-05
2.84017e-06
1.63497e-05
2.29562e-05
2.88201e-05
4.28395e-05
4.47609e-05
4.40544e-05
5.47003e-05
4.03489e-05
2.15667e-05
3.30991e-05
3.45584e-05
4.17461e-05
4.96454e-05
4.80802e-05
6.00076e-05
6.69704e-05
5.17458e-05
5.91375e-05
5.42264e-05
4.64037e-05
5.68565e-05
5.72829e-05
5.59079e-05
6.86391e-05
6.77262e-05
6.84305e-05
7.84286e-05
6.45463e-05
8.42627e-05
7.57362e-05
6.22501e-05
6.36308e-05
6.51132e-05
6.13954e-05
7.37307e-05
7.84745e-05
7.53734e-05
8.67917e-05
0.000117183
7.53572e-05
7.1895e-05
7.05884e-05
6.91121e-05
7.39385e-05
7.48973e-05
7.48408e-05
9.08844e-05
8.97777e-05
0.000220046
0.000103958
6.36971e-05
5.13044e-05
4.0691e-05
1.3186e-05
1.62144e-05
3.2869e-05
2.0786e-05
7.19245e-05
0.000183352
8.07685e-05
7.38605e-05
5.25387e-05
2.04965e-05
3.97516e-05
1.15223e-05
8.06248e-06
5.8827e-05
4.80463e-05
0.000174036
0.000100456
4.74184e-05
5.16277e-05
4.48795e-05
1.1624e-05
3.27703e-05
4.49799e-05
1.58166e-05
5.77088e-05
0.000138449
5.68889e-05
8.02468e-05
4.74788e-05
3.17205e-05
4.78087e-05
2.38694e-05
1.79848e-05
5.93876e-05
4.57734e-05
0.000151914
8.77387e-05
4.3534e-05
5.18116e-05
4.73315e-05
2.06186e-05
3.68434e-05
5.00518e-05
2.17195e-05
6.00776e-05
0.000125588
5.36264e-05
7.18893e-05
4.51481e-05
3.85613e-05
4.85741e-05
3.54704e-05
2.58191e-05
6.0563e-05
4.97948e-05
0.000153736
8.14309e-05
5.09812e-05
6.06307e-05
5.15358e-05
4.03691e-05
4.51061e-05
6.16326e-05
3.65962e-05
6.35335e-05
0.00013048
7.46171e-05
6.70321e-05
5.72925e-05
5.00012e-05
5.52071e-05
5.43887e-05
4.40046e-05
6.7016e-05
6.20421e-05
0.000171581
5.95383e-05
6.65831e-05
4.08874e-05
4.72026e-05
3.85151e-05
4.39811e-05
5.93735e-05
5.24163e-05
7.47177e-05
0.000147325
5.4049e-05
2.73978e-05
2.40715e-05
1.64279e-05
2.29503e-05
3.32423e-05
4.05314e-05
6.23793e-05
8.05211e-05
-0.000334949
-0.000229302
-0.000239911
-0.0002336
-0.000217175
-0.000199411
-0.000186622
-0.000163824
-0.000182272
-0.000199311
-0.000219568
-0.000162787
-0.000157306
-0.000142609
-0.000132437
-0.000104096
-9.86264e-05
-9.50799e-05
-7.21378e-05
-0.000101784
-0.000163796
-0.000123898
-0.000125412
-0.000114747
-9.58107e-05
-8.85701e-05
-6.99118e-05
-5.85258e-05
-7.2714e-05
-7.81307e-05
-0.000129027
-9.99476e-05
-9.29986e-05
-8.82503e-05
-7.65759e-05
-5.52796e-05
-5.37386e-05
-5.60754e-05
-4.22278e-05
-6.91703e-05
-0.000100366
-7.49314e-05
-7.87808e-05
-6.65161e-05
-5.38223e-05
-5.01356e-05
-3.80752e-05
-3.21442e-05
-5.0037e-05
-5.36914e-05
-9.63039e-05
-6.63121e-05
-5.55994e-05
-5.56155e-05
-4.33863e-05
-3.10143e-05
-2.88641e-05
-3.63695e-05
-2.74252e-05
-5.32112e-05
-7.27583e-05
-4.91628e-05
-5.28698e-05
-3.73396e-05
-3.30936e-05
-2.5552e-05
-2.05838e-05
-1.78348e-05
-3.49075e-05
-4.34366e-05
-7.53705e-05
-4.34252e-05
-3.78324e-05
-3.30378e-05
-2.63519e-05
-1.39487e-05
-1.82786e-05
-2.01081e-05
-2.33439e-05
-4.64852e-05
-5.61104e-05
-4.27947e-05
-2.80773e-05
-3.41806e-05
-1.66371e-05
-2.76891e-05
-1.24556e-05
-2.50288e-05
-2.6358e-05
-4.24271e-05
-7.27474e-05
-4.35206e-05
-4.40947e-05
-3.18656e-05
-3.63951e-05
-2.86289e-05
-3.78556e-05
-4.29431e-05
-4.52665e-05
-7.0284e-05
0.000101174
5.12396e-05
3.07925e-05
1.36491e-05
1.2833e-05
3.1571e-06
8.41533e-06
9.17717e-06
1.4334e-05
3.74929e-05
9.75918e-05
5.3282e-05
3.53232e-05
3.77197e-05
2.59826e-05
2.75874e-05
2.34261e-05
2.39231e-05
2.96295e-05
4.45907e-05
9.02374e-05
4.84378e-05
4.13573e-05
3.46241e-05
3.15865e-05
2.76976e-05
2.60971e-05
2.85741e-05
3.25098e-05
4.44611e-05
8.25885e-05
4.46199e-05
3.77184e-05
3.30989e-05
2.92558e-05
2.55472e-05
2.6822e-05
2.89856e-05
2.99114e-05
4.44806e-05
7.50754e-05
3.67222e-05
3.22593e-05
2.85493e-05
2.42571e-05
2.60625e-05
2.16752e-05
2.45826e-05
3.32387e-05
4.0416e-05
6.24982e-05
3.20464e-05
2.62771e-05
2.02879e-05
2.28957e-05
1.48984e-05
2.09537e-05
2.62167e-05
2.3361e-05
4.13465e-05
6.03961e-05
1.99844e-05
1.52888e-05
1.78625e-05
9.10061e-06
1.73553e-05
1.30285e-05
1.46119e-05
2.87086e-05
3.38896e-05
3.63715e-05
1.7632e-05
8.7132e-06
5.89597e-06
1.01756e-05
4.80119e-06
8.9338e-06
1.75883e-05
1.46431e-05
3.32012e-05
4.426e-05
-2.66156e-06
8.42862e-06
1.85656e-06
4.37933e-06
5.76452e-06
6.96057e-06
7.91067e-06
1.77063e-05
2.31029e-05
2.06945e-05
2.19011e-06
-3.38764e-06
1.5197e-07
3.50397e-07
3.26359e-06
7.31731e-06
1.44062e-05
1.72347e-05
2.84554e-05
0.00015417
0.000111233
0.000111709
9.38825e-05
9.01135e-05
0.000100473
9.67181e-05
8.92579e-05
0.00012381
0.000106526
0.00010756
8.27655e-05
5.68233e-05
7.20393e-05
7.77019e-05
5.90092e-05
7.95359e-05
8.57505e-05
4.28573e-05
6.97696e-05
7.384e-05
4.31747e-05
7.42071e-05
5.89102e-05
5.46911e-05
7.54988e-05
5.53707e-05
4.44978e-05
7.43627e-05
4.74642e-05
7.30421e-05
6.21028e-05
3.43306e-05
5.18212e-05
5.643e-05
3.53916e-05
5.54265e-05
6.27055e-05
2.72702e-05
5.00912e-05
4.64657e-05
2.23987e-05
5.04721e-05
3.8963e-05
3.37045e-05
5.38569e-05
3.75861e-05
2.88883e-05
5.50327e-05
3.28549e-05
4.79183e-05
4.07689e-05
2.06602e-05
3.21742e-05
3.81327e-05
2.02904e-05
3.62404e-05
4.67668e-05
1.86729e-05
3.84967e-05
2.85495e-05
9.03383e-06
2.39768e-05
1.9858e-05
1.32465e-05
2.86834e-05
2.44008e-05
1.34454e-05
3.96181e-05
2.75168e-05
2.449e-05
1.26647e-05
7.70724e-06
8.48083e-06
1.44983e-05
1.12157e-05
1.1252e-05
3.1694e-05
1.32186e-05
2.87078e-05
1.10355e-05
5.53829e-06
6.46892e-06
1.24837e-05
1.41709e-05
1.31603e-05
2.34193e-05
1.00199e-05
2.67254e-05
2.19727e-05
1.73625e-05
1.90186e-05
2.44454e-05
2.92725e-05
2.89693e-05
3.15022e-05
2.58664e-05
2.92388e-05
2.63983e-05
2.57037e-05
0.000464901
0.00032886
0.000329725
0.000303847
0.00029221
0.000285827
0.000281328
0.000264323
0.000305676
0.000321903
0.000328473
0.00023287
0.000202482
0.000206433
0.000195419
0.000169034
0.000176509
0.00018008
0.00014234
0.000188956
0.000266186
0.000174764
0.000190218
0.000172305
0.000155413
0.000159602
0.000137759
0.000126147
0.000151689
0.000152485
0.000239187
0.000164557
0.000142884
0.000145902
0.000137559
0.000110576
0.00012092
0.000127767
0.000102929
0.000140548
0.000206184
0.000123637
0.000136332
0.000121517
0.0001065
0.000113298
9.71649e-05
9.23273e-05
0.000115655
0.000118293
0.000197054
0.000125085
0.000105958
0.000105533
0.000101475
7.96795e-05
8.90926e-05
9.96822e-05
8.32157e-05
0.000116105
0.000181224
9.63475e-05
9.95381e-05
9.11426e-05
7.5966e-05
8.15987e-05
7.64467e-05
7.26181e-05
9.49183e-05
0.000105861
0.000169292
9.66361e-05
8.28071e-05
7.57347e-05
7.32142e-05
6.45348e-05
6.67193e-05
8.17989e-05
7.78307e-05
0.000106591
0.000169558
8.0508e-05
7.75697e-05
7.24832e-05
6.65742e-05
6.65596e-05
6.91569e-05
7.18897e-05
8.24058e-05
0.000103941
0.000176184
9.8579e-05
8.91907e-05
8.38206e-05
8.00589e-05
7.94914e-05
8.30292e-05
9.14874e-05
9.9235e-05
0.000127884
0.000345975
0.000270171
0.000268951
0.000248993
0.00023543
0.000248497
0.0002437
0.000237206
0.000283369
0.000266075
0.000203683
0.00014921
0.000130357
0.00013855
0.000146101
0.000125112
0.000148502
0.000158708
0.000113942
0.000145227
0.000156853
0.00010455
0.000132651
0.000118626
0.000110904
0.000129149
0.000113078
0.000102851
0.000130317
0.000111703
0.000154421
0.000115402
9.22443e-05
0.000106222
0.000106846
8.67318e-05
0.0001039
0.000112261
8.29462e-05
0.000105465
0.000130417
8.32457e-05
0.000105676
9.43875e-05
8.64792e-05
9.83973e-05
8.88442e-05
8.23156e-05
9.87736e-05
8.94028e-05
0.000141757
0.000100431
8.42163e-05
9.25222e-05
9.05612e-05
7.71964e-05
8.63629e-05
9.35148e-05
7.68695e-05
8.96096e-05
0.000134627
8.58094e-05
9.49447e-05
8.67966e-05
7.93149e-05
8.26268e-05
8.49129e-05
7.86374e-05
8.82903e-05
9.12774e-05
0.000156028
9.40937e-05
8.92564e-05
8.45231e-05
8.00049e-05
8.15776e-05
7.78863e-05
9.20043e-05
8.68788e-05
9.49597e-05
0.000156143
0.000101635
8.72497e-05
8.70714e-05
8.41436e-05
7.76522e-05
9.09969e-05
8.63525e-05
9.29962e-05
0.000107359
0.000193193
0.000121838
0.00011506
0.000109457
0.000102363
0.000104111
0.000100686
0.00010399
0.000112377
0.000124105
0.000696017
0.000481525
0.000450471
0.000431852
0.000393722
0.000355637
0.000338247
0.000324319
0.000336694
0.000370636
0.000454228
0.000298651
0.000293567
0.000259487
0.000226832
0.000210752
0.000188378
0.000187075
0.000190215
0.000217755
0.000375159
0.000267391
0.000233522
0.000228151
0.000201932
0.000171959
0.00016962
0.000165082
0.000160014
0.00019412
0.000294096
0.000205379
0.000222249
0.000195931
0.000172104
0.000159356
0.000143225
0.000144567
0.000151976
0.000175264
0.000266973
0.000199693
0.000179761
0.000176585
0.000158603
0.000135678
0.000136487
0.000137946
0.000135296
0.000166938
0.000238632
0.000165451
0.000176839
0.000162548
0.000142666
0.000135832
0.000124809
0.000127962
0.00013818
0.000159637
0.000234284
0.000174743
0.000162839
0.000154925
0.000142551
0.000124042
0.000126478
0.000133415
0.000131872
0.000164187
0.000240032
0.00016275
0.00016391
0.000148513
0.000133821
0.000125884
0.000127967
0.000127835
0.000146205
0.000170657
0.000247305
0.00016925
0.000144788
0.00013927
0.000119833
0.000124497
0.000118093
0.000142614
0.000139571
0.000179653
0.000269899
0.000166086
0.000150559
0.000133582
0.000132246
0.000130524
0.000148001
0.00016087
0.000181033
0.000219262
-0.000235905
-0.000129089
-0.000115257
-9.08519e-05
-7.73648e-05
-5.02345e-05
-3.6215e-05
-1.90442e-05
-1.15968e-05
-2.04238e-05
-0.000242794
-0.000147169
-0.000110757
-9.88836e-05
-6.857e-05
-4.82586e-05
-2.98941e-05
-1.64124e-05
-1.02742e-05
-1.8265e-05
-0.000191247
-0.000111473
-9.69381e-05
-7.43914e-05
-5.40203e-05
-3.65573e-05
-1.77715e-05
-8.94057e-06
-9.20166e-06
-1.2173e-05
-0.000162721
-8.80354e-05
-6.759e-05
-5.33841e-05
-3.65619e-05
-1.72216e-05
-1.0511e-05
-4.00607e-06
2.93315e-06
-7.85792e-06
-0.000127597
-5.85684e-05
-5.00563e-05
-3.11308e-05
-1.63608e-05
-1.15977e-05
5.30335e-06
9.69757e-06
-8.98631e-07
3.04465e-06
-0.000115233
-4.64613e-05
-2.23497e-05
-1.06174e-05
-5.14922e-06
1.37927e-05
1.15565e-05
1.04835e-05
2.15578e-05
4.3393e-06
-9.23409e-05
-9.68108e-06
-1.9761e-06
7.24986e-06
2.26276e-05
1.66898e-05
3.01999e-05
3.55119e-05
1.65222e-05
2.32487e-05
-5.06791e-05
-2.43713e-06
2.34263e-05
2.85726e-05
2.75784e-05
4.11223e-05
4.01519e-05
3.45844e-05
4.56048e-05
2.89132e-05
-4.33806e-05
4.04319e-05
2.38621e-05
3.6828e-05
3.63139e-05
3.84498e-05
4.42367e-05
5.13539e-05
4.15821e-05
4.80676e-05
6.76517e-07
2.56294e-05
3.65475e-05
3.82625e-05
4.36307e-05
4.71196e-05
5.02581e-05
4.67404e-05
5.46589e-05
5.15632e-05
0.000378253
0.000132659
0.000126885
9.74438e-05
7.8784e-05
2.6043e-05
3.59523e-06
1.19839e-07
-2.92416e-05
-1.6823e-06
0.000319488
9.02201e-05
6.51733e-05
5.42538e-05
4.41672e-06
2.40112e-05
-1.78315e-05
-2.85612e-05
6.47804e-06
-1.34079e-05
0.000303136
0.000104543
3.39596e-05
3.49629e-05
2.09598e-05
-1.89712e-05
-5.32266e-06
-6.00672e-06
-3.76554e-05
-7.88031e-06
0.000213605
5.8185e-05
7.33844e-05
2.17206e-05
-1.05239e-06
7.33879e-06
-2.49674e-05
-3.47001e-05
-3.49599e-06
-2.15557e-05
0.000248024
9.54411e-05
2.37102e-05
2.38215e-05
7.53836e-06
-2.51992e-05
-1.58993e-05
-1.25159e-05
-3.92252e-05
-1.12089e-05
0.000192139
5.43968e-05
5.99366e-05
8.54808e-06
-1.74678e-06
-3.75653e-06
-2.12273e-05
-3.40231e-05
-6.65148e-06
-2.21069e-05
0.000235402
8.4986e-05
2.47022e-05
3.0205e-05
2.73132e-06
-7.36101e-06
-1.0173e-05
-2.97313e-06
-2.5126e-05
-1.12739e-05
0.00018269
7.3924e-05
4.45797e-05
1.90324e-05
7.3728e-06
7.00714e-06
-2.54512e-06
-1.05e-05
6.071e-07
-8.98775e-06
0.000230834
4.10477e-05
4.77278e-05
-8.32266e-07
9.81996e-06
-1.20548e-05
-4.91275e-07
-3.02896e-07
-1.65669e-06
3.39631e-07
0.000173331
4.50544e-05
-1.40481e-06
-1.20354e-05
-2.99146e-05
-2.34209e-05
-1.85626e-05
-1.00155e-05
6.62484e-06
6.76883e-06
-0.000958078
-0.000790746
-0.000649839
-0.00060481
-0.000518366
-0.000457949
-0.000430648
-0.000412056
-0.000397169
-0.000417656
-0.000587731
-0.000471805
-0.000456139
-0.000370026
-0.000322422
-0.000281552
-0.00025418
-0.000242731
-0.000259583
-0.000276471
-0.000463144
-0.000413012
-0.00035768
-0.00033118
-0.000286983
-0.000241959
-0.00023149
-0.000234935
-0.000224701
-0.000263754
-0.00039685
-0.000310754
-0.000318848
-0.000286537
-0.000247772
-0.000225715
-0.00021052
-0.000208785
-0.000219721
-0.000247957
-0.000309437
-0.000280663
-0.000262784
-0.000249556
-0.000227502
-0.000199691
-0.000196486
-0.000201962
-0.000206236
-0.000235102
-0.000294012
-0.00022809
-0.000237939
-0.000233288
-0.000201347
-0.000195856
-0.000183035
-0.000192753
-0.000196949
-0.000230549
-0.000269347
-0.000233911
-0.000234616
-0.000214585
-0.000210367
-0.00017853
-0.000179752
-0.000187031
-0.000194875
-0.000224267
-0.000283356
-0.000222604
-0.000232517
-0.000214175
-0.000194505
-0.000169195
-0.00018229
-0.000171851
-0.000195974
-0.000225481
-0.000323046
-0.000271466
-0.000210086
-0.000221178
-0.00015842
-0.000186969
-0.000146596
-0.00019304
-0.000180672
-0.000215173
-0.000324777
-0.000148111
-0.000181924
-0.000165828
-0.000176308
-0.000161686
-0.000190007
-0.000197408
-0.000206956
-0.000232698
-0.000464068
-0.000342069
-0.000319289
-0.000334275
-0.000314055
-0.000318566
-0.000333298
-0.000368797
-0.000284627
-0.000301931
-0.000181264
-0.000230575
-0.000242149
-0.000196619
-0.00019459
-0.000195775
-0.000208807
-0.000208997
-0.000251282
-0.000130117
-0.000187664
-0.000224821
-0.000200503
-0.000200923
-0.000191065
-0.000174071
-0.000201805
-0.000217487
-0.000186954
-0.000146905
-0.000204216
-0.000191933
-0.000209282
-0.000194657
-0.000180685
-0.000195751
-0.000187623
-0.000181474
-0.000217744
-0.000138704
-0.000211682
-0.00021472
-0.000191751
-0.000200874
-0.000198721
-0.000170587
-0.000203981
-0.000219542
-0.000164657
-0.00016608
-0.000231518
-0.000202452
-0.000227481
-0.000217356
-0.000196635
-0.000223923
-0.000206634
-0.000196415
-0.000234936
-0.00015544
-0.00029582
-0.000284675
-0.000260067
-0.000255899
-0.000256351
-0.000218492
-0.000253077
-0.000272069
-0.000219594
-0.000210329
-0.000374707
-0.000310251
-0.000314125
-0.000285391
-0.000255387
-0.000271705
-0.000274243
-0.00026127
-0.000288432
-0.000212464
-0.000459413
-0.000427588
-0.000333553
-0.000299438
-0.000254451
-0.000252657
-0.000267095
-0.00029705
-0.000336213
-0.0001991
-0.000558471
-0.000205904
-0.000231303
-0.000222912
-0.000205514
-0.00020572
-0.000225426
-0.000199817
-0.000241903
-0.00024521
-0.00107565
-0.000707627
-0.000674251
-0.000679716
-0.000631906
-0.000620953
-0.000632703
-0.00069857
-0.000613744
-0.00070966
-0.000613922
-0.000515881
-0.000497799
-0.000430567
-0.000378385
-0.000394725
-0.000397578
-0.00041805
-0.000517599
-0.000331292
-0.000565441
-0.000476593
-0.00039786
-0.000393506
-0.000363475
-0.000318402
-0.000368074
-0.00038966
-0.000376911
-0.00029175
-0.00048101
-0.000369824
-0.000408817
-0.000353425
-0.000317219
-0.000334314
-0.000311171
-0.000312844
-0.000391747
-0.000267957
-0.000485922
-0.000398213
-0.000333158
-0.000344295
-0.000324128
-0.000270063
-0.000323781
-0.000350467
-0.000287323
-0.000298643
-0.000450403
-0.000343306
-0.000383639
-0.000337783
-0.000306185
-0.000332481
-0.000312316
-0.000305555
-0.000384645
-0.000274422
-0.000526042
-0.000447072
-0.000382843
-0.000384451
-0.000359855
-0.000319148
-0.000375251
-0.000412956
-0.000359122
-0.000355808
-0.000583174
-0.000456222
-0.00044865
-0.000397404
-0.000356825
-0.000395146
-0.000396144
-0.000416191
-0.000465677
-0.000361927