/*--------------------------------*- C++ -*----------------------------------*\
| =========                 |                                                 |
| \\      /  F ield         | OpenFOAM: The Open Source CFD Toolbox           |
|  \\    /   O peration     | Version:  2406                                  |
|   \\  /    A nd           | Website:  www.openfoam.com                      |
|    \\/     M anipulation  |                                                 |
\*---------------------------------------------------------------------------*/
FoamFile
{
    version     2.0;
    format      ascii;
    arch        "LSB;label=32;scalar=64";
    class       volScalarField;
    location    "200";
    object      magR;
}
// * * * * * * * * * * * * * * * * * * * * * * * * * * * * * * * * * * * * * //

dimensions      [0 2 -2 0 0 0 0];

internalField   nonuniform List<scalar> 
25000
(
4.36352e-05
4.16191e-05
3.80775e-05
3.74269e-05
3.70891e-05
3.70907e-05
3.74364e-05
3.81035e-05
4.16157e-05
4.35703e-05
4.1625e-05
4.03759e-05
3.69349e-05
3.51208e-05
3.42429e-05
3.42447e-05
3.51274e-05
3.69595e-05
4.039e-05
4.16107e-05
3.80722e-05
3.69485e-05
3.42864e-05
3.26747e-05
3.1891e-05
3.18924e-05
3.268e-05
3.429e-05
3.69431e-05
3.81047e-05
3.74219e-05
3.51184e-05
3.26753e-05
3.10913e-05
3.03067e-05
3.03089e-05
3.10948e-05
3.26796e-05
3.51288e-05
3.74388e-05
3.7085e-05
3.42394e-05
3.18897e-05
3.03073e-05
2.95225e-05
2.95236e-05
3.03093e-05
3.18954e-05
3.42487e-05
3.70945e-05
3.70878e-05
3.4242e-05
3.18907e-05
3.03071e-05
2.95233e-05
2.95241e-05
3.03098e-05
3.18958e-05
3.4249e-05
3.70946e-05
3.74342e-05
3.51239e-05
3.26764e-05
3.10938e-05
3.03099e-05
3.03106e-05
3.1096e-05
3.26804e-05
3.51297e-05
3.74391e-05
3.81019e-05
3.694e-05
3.4288e-05
3.26802e-05
3.18947e-05
3.18952e-05
3.26821e-05
3.42914e-05
3.69444e-05
3.8105e-05
4.1608e-05
4.03874e-05
3.6958e-05
3.51281e-05
3.42479e-05
3.42483e-05
3.51295e-05
3.69606e-05
4.03906e-05
4.16092e-05
4.3568e-05
4.16162e-05
3.81038e-05
3.74377e-05
3.70939e-05
3.70942e-05
3.74391e-05
3.81057e-05
4.16177e-05
4.35713e-05
6.00608e-05
5.81302e-05
5.42887e-05
5.35001e-05
5.30524e-05
5.30535e-05
5.35016e-05
5.43574e-05
5.82149e-05
5.99568e-05
5.8155e-05
5.51153e-05
5.29106e-05
5.19637e-05
5.13535e-05
5.13541e-05
5.19704e-05
5.2986e-05
5.51898e-05
5.81889e-05
5.42882e-05
5.29711e-05
5.10341e-05
5.02384e-05
4.98148e-05
4.98169e-05
5.02534e-05
5.10471e-05
5.29213e-05
5.43509e-05
5.34975e-05
5.19652e-05
5.02456e-05
4.93236e-05
4.88526e-05
4.8859e-05
4.93292e-05
5.02461e-05
5.19667e-05
5.35006e-05
5.30498e-05
5.13515e-05
4.98144e-05
4.88572e-05
4.84044e-05
4.84055e-05
4.88554e-05
4.98183e-05
5.13556e-05
5.3055e-05
5.30508e-05
5.13525e-05
4.98155e-05
4.88541e-05
4.84055e-05
4.84062e-05
4.88559e-05
4.98187e-05
5.13561e-05
5.30554e-05
5.34989e-05
5.1965e-05
5.02445e-05
4.9329e-05
4.88605e-05
4.8861e-05
4.93305e-05
5.02472e-05
5.19682e-05
5.35018e-05
5.43513e-05
5.29212e-05
5.10463e-05
5.02539e-05
4.98187e-05
4.98191e-05
5.02553e-05
5.10489e-05
5.29238e-05
5.43527e-05
5.8186e-05
5.51882e-05
5.29836e-05
5.19701e-05
5.13556e-05
5.13559e-05
5.19715e-05
5.29864e-05
5.51906e-05
5.81865e-05
5.99538e-05
5.82128e-05
5.43536e-05
5.35003e-05
5.3055e-05
5.30554e-05
5.35017e-05
5.43566e-05
5.82153e-05
5.99564e-05
5.51333e-05
5.14778e-05
4.92753e-05
4.79925e-05
4.73947e-05
4.73995e-05
4.79924e-05
4.9307e-05
5.15986e-05
5.517e-05
5.15099e-05
4.81811e-05
4.7267e-05
4.65589e-05
4.60657e-05
4.60688e-05
4.65738e-05
4.73603e-05
4.82187e-05
5.15573e-05
4.92828e-05
4.73512e-05
4.59751e-05
4.52596e-05
4.48132e-05
4.4817e-05
4.52815e-05
4.59952e-05
4.72749e-05
4.92932e-05
4.7995e-05
4.65676e-05
4.52721e-05
4.45091e-05
4.40445e-05
4.40529e-05
4.45155e-05
4.52718e-05
4.65678e-05
4.799e-05
4.73956e-05
4.60675e-05
4.4816e-05
4.4052e-05
4.36583e-05
4.36592e-05
4.40481e-05
4.48199e-05
4.60725e-05
4.74019e-05
4.73992e-05
4.60701e-05
4.48179e-05
4.4048e-05
4.366e-05
4.36603e-05
4.40489e-05
4.48204e-05
4.60729e-05
4.74026e-05
4.7991e-05
4.65678e-05
4.5272e-05
4.45173e-05
4.40565e-05
4.40565e-05
4.45174e-05
4.52729e-05
4.65691e-05
4.79921e-05
4.92979e-05
4.72773e-05
4.59972e-05
4.52851e-05
4.48222e-05
4.4822e-05
4.52845e-05
4.59972e-05
4.72773e-05
4.92969e-05
5.15618e-05
4.82209e-05
4.73618e-05
4.65771e-05
4.6074e-05
4.60736e-05
4.65761e-05
4.73614e-05
4.82203e-05
5.15593e-05
5.5166e-05
5.15938e-05
4.93026e-05
4.7992e-05
4.74029e-05
4.74026e-05
4.79916e-05
4.9304e-05
5.15959e-05
5.5167e-05
4.18122e-05
3.72357e-05
3.63148e-05
3.49299e-05
3.44311e-05
3.44397e-05
3.49373e-05
3.63349e-05
3.73032e-05
4.18388e-05
3.72635e-05
3.45051e-05
3.41161e-05
3.3365e-05
3.29863e-05
3.29913e-05
3.33865e-05
3.42084e-05
3.45226e-05
3.72611e-05
3.63316e-05
3.41978e-05
3.30678e-05
3.22315e-05
3.17487e-05
3.17531e-05
3.22529e-05
3.30918e-05
3.41322e-05
3.63213e-05
3.49368e-05
3.33786e-05
3.22451e-05
3.1475e-05
3.09917e-05
3.09989e-05
3.14796e-05
3.22445e-05
3.33815e-05
3.49369e-05
3.44352e-05
3.29909e-05
3.17532e-05
3.09989e-05
3.05846e-05
3.05853e-05
3.0995e-05
3.17568e-05
3.29968e-05
3.4444e-05
3.44424e-05
3.29945e-05
3.17546e-05
3.0995e-05
3.05861e-05
3.05863e-05
3.09956e-05
3.17571e-05
3.29967e-05
3.44445e-05
3.49382e-05
3.33806e-05
3.22445e-05
3.14813e-05
3.10026e-05
3.10026e-05
3.14813e-05
3.2245e-05
3.33816e-05
3.49388e-05
3.63266e-05
3.41326e-05
3.30937e-05
3.22567e-05
3.17589e-05
3.17586e-05
3.22559e-05
3.30931e-05
3.41327e-05
3.63249e-05
3.72714e-05
3.45248e-05
3.42117e-05
3.33913e-05
3.29977e-05
3.29972e-05
3.33898e-05
3.42103e-05
3.45242e-05
3.72672e-05
4.18407e-05
3.72984e-05
3.63339e-05
3.49394e-05
3.44445e-05
3.4444e-05
3.49379e-05
3.63331e-05
3.73001e-05
4.18388e-05
3.19229e-05
2.77495e-05
2.71253e-05
2.58194e-05
2.53945e-05
2.54007e-05
2.58246e-05
2.71406e-05
2.77885e-05
3.18934e-05
2.77734e-05
2.54812e-05
2.49457e-05
2.403e-05
2.36838e-05
2.36867e-05
2.40468e-05
2.50289e-05
2.54979e-05
2.77526e-05
2.71414e-05
2.5017e-05
2.38639e-05
2.28115e-05
2.22826e-05
2.22851e-05
2.28241e-05
2.38812e-05
2.49642e-05
2.71291e-05
2.58206e-05
2.40411e-05
2.28225e-05
2.18922e-05
2.13604e-05
2.13651e-05
2.18915e-05
2.2816e-05
2.40406e-05
2.58239e-05
2.53959e-05
2.36865e-05
2.22857e-05
2.13658e-05
2.08635e-05
2.08635e-05
2.13608e-05
2.2286e-05
2.36877e-05
2.53998e-05
2.54032e-05
2.36889e-05
2.2286e-05
2.13618e-05
2.08641e-05
2.08641e-05
2.13613e-05
2.22864e-05
2.36876e-05
2.53998e-05
2.58264e-05
2.40416e-05
2.28174e-05
2.18935e-05
2.13676e-05
2.13675e-05
2.18929e-05
2.28168e-05
2.40406e-05
2.58246e-05
2.71318e-05
2.49649e-05
2.3884e-05
2.28276e-05
2.2289e-05
2.22888e-05
2.28265e-05
2.38827e-05
2.49643e-05
2.7131e-05
2.77599e-05
2.55011e-05
2.5034e-05
2.40512e-05
2.36898e-05
2.36894e-05
2.40496e-05
2.50315e-05
2.54996e-05
2.77575e-05
3.18956e-05
2.77873e-05
2.71425e-05
2.58265e-05
2.54005e-05
2.54005e-05
2.58255e-05
2.7141e-05
2.77872e-05
3.18953e-05
2.62045e-05
2.29734e-05
2.23789e-05
2.13016e-05
2.09457e-05
2.09498e-05
2.13071e-05
2.23984e-05
2.30168e-05
2.61638e-05
2.29981e-05
2.13304e-05
2.06186e-05
1.96956e-05
1.93708e-05
1.93725e-05
1.971e-05
2.06997e-05
2.13611e-05
2.29875e-05
2.23895e-05
2.06833e-05
1.96058e-05
1.853e-05
1.8035e-05
1.80377e-05
1.85389e-05
1.96176e-05
2.06405e-05
2.23911e-05
2.13003e-05
1.97055e-05
1.85391e-05
1.75743e-05
1.70713e-05
1.70762e-05
1.7574e-05
1.85315e-05
1.97043e-05
2.13094e-05
2.09467e-05
1.93731e-05
1.80372e-05
1.70758e-05
1.6569e-05
1.65698e-05
1.70727e-05
1.80387e-05
1.93742e-05
2.09499e-05
2.09526e-05
1.93747e-05
1.80381e-05
1.7073e-05
1.65704e-05
1.65708e-05
1.70736e-05
1.80396e-05
1.93745e-05
2.095e-05
2.13101e-05
1.97048e-05
1.85328e-05
1.75759e-05
1.7079e-05
1.70794e-05
1.75764e-05
1.85335e-05
1.97052e-05
2.13103e-05
2.23909e-05
2.06406e-05
1.96206e-05
1.85425e-05
1.8042e-05
1.80423e-05
1.85427e-05
1.96208e-05
2.06416e-05
2.2393e-05
2.29908e-05
2.13636e-05
2.07052e-05
1.97151e-05
1.93765e-05
1.93767e-05
1.97148e-05
2.07041e-05
2.13633e-05
2.29927e-05
2.61687e-05
2.30199e-05
2.24046e-05
2.13122e-05
2.09511e-05
2.09514e-05
2.13114e-05
2.24024e-05
2.30179e-05
2.61692e-05
2.34769e-05
2.12901e-05
2.07091e-05
1.97979e-05
1.94824e-05
1.94858e-05
1.98068e-05
2.07404e-05
2.13529e-05
2.34629e-05
2.13202e-05
2.02007e-05
1.93958e-05
1.85454e-05
1.82381e-05
1.82412e-05
1.85632e-05
1.94822e-05
2.02452e-05
2.13256e-05
2.07227e-05
1.94631e-05
1.85242e-05
1.7553e-05
1.71366e-05
1.7142e-05
1.75663e-05
1.8536e-05
1.94222e-05
2.07352e-05
1.98013e-05
1.85589e-05
1.75634e-05
1.67012e-05
1.62893e-05
1.62967e-05
1.67063e-05
1.75595e-05
1.85588e-05
1.9813e-05
1.94866e-05
1.82432e-05
1.71404e-05
1.62945e-05
1.58777e-05
1.58799e-05
1.62945e-05
1.71457e-05
1.82474e-05
1.94912e-05
1.94903e-05
1.82449e-05
1.71435e-05
1.62941e-05
1.58809e-05
1.5882e-05
1.6296e-05
1.7147e-05
1.82481e-05
1.94917e-05
1.98109e-05
1.85577e-05
1.75605e-05
1.67089e-05
1.63017e-05
1.63025e-05
1.67105e-05
1.7563e-05
1.85607e-05
1.98144e-05
2.07325e-05
1.94218e-05
1.85394e-05
1.75714e-05
1.71496e-05
1.71504e-05
1.75729e-05
1.85415e-05
1.94247e-05
2.07368e-05
2.13257e-05
2.02469e-05
1.94881e-05
1.85705e-05
1.82498e-05
1.82505e-05
1.85717e-05
1.94893e-05
2.02488e-05
2.13301e-05
2.34665e-05
2.13563e-05
2.07481e-05
1.98151e-05
1.94919e-05
1.94926e-05
1.98155e-05
2.07474e-05
2.13553e-05
2.34676e-05
2.25808e-05
2.11896e-05
2.06065e-05
1.98273e-05
1.95333e-05
1.95363e-05
1.98381e-05
2.06426e-05
2.12607e-05
2.25906e-05
2.1223e-05
2.04367e-05
1.96209e-05
1.88653e-05
1.85663e-05
1.85709e-05
1.88869e-05
1.97111e-05
2.04777e-05
2.12309e-05
2.06259e-05
1.96948e-05
1.88667e-05
1.79999e-05
1.76426e-05
1.76506e-05
1.80196e-05
1.88804e-05
1.96462e-05
2.06354e-05
1.98365e-05
1.88826e-05
1.8012e-05
1.72403e-05
1.68929e-05
1.69024e-05
1.725e-05
1.80114e-05
1.88811e-05
1.98446e-05
1.95405e-05
1.85729e-05
1.76472e-05
1.68988e-05
1.65558e-05
1.65587e-05
1.68996e-05
1.76539e-05
1.85783e-05
1.95448e-05
1.95422e-05
1.85746e-05
1.76518e-05
1.68995e-05
1.65597e-05
1.65609e-05
1.6901e-05
1.7655e-05
1.85787e-05
1.95454e-05
1.98425e-05
1.88795e-05
1.80126e-05
1.72527e-05
1.69077e-05
1.69084e-05
1.72538e-05
1.80142e-05
1.88823e-05
1.98458e-05
2.06339e-05
1.96456e-05
1.88837e-05
1.80247e-05
1.76586e-05
1.76591e-05
1.80255e-05
1.88848e-05
1.96473e-05
2.06362e-05
2.12332e-05
2.04801e-05
1.97179e-05
1.88952e-05
1.85815e-05
1.85818e-05
1.88955e-05
1.97179e-05
2.04805e-05
2.1235e-05
2.25957e-05
2.12639e-05
2.06508e-05
1.98479e-05
1.95462e-05
1.95465e-05
1.9848e-05
2.06498e-05
2.12626e-05
2.25958e-05
2.22333e-05
2.13124e-05
2.07601e-05
2.01065e-05
1.983e-05
1.98323e-05
2.01163e-05
2.07937e-05
2.13742e-05
2.22372e-05
2.13503e-05
2.07627e-05
2.00196e-05
1.93623e-05
1.90718e-05
1.90774e-05
1.93874e-05
2.01139e-05
2.07949e-05
2.13443e-05
2.07862e-05
2.00997e-05
1.93611e-05
1.85802e-05
1.8258e-05
1.82669e-05
1.86039e-05
1.93766e-05
2.00426e-05
2.07846e-05
2.01174e-05
1.93809e-05
1.8593e-05
1.78855e-05
1.75696e-05
1.75794e-05
1.78956e-05
1.85925e-05
1.93771e-05
2.01207e-05
1.9836e-05
1.90769e-05
1.82615e-05
1.75752e-05
1.72744e-05
1.72768e-05
1.75743e-05
1.82665e-05
1.90816e-05
1.98399e-05
1.9836e-05
1.90781e-05
1.82656e-05
1.75746e-05
1.72773e-05
1.72783e-05
1.7575e-05
1.8267e-05
1.90816e-05
1.98402e-05
2.01176e-05
1.93751e-05
1.85932e-05
1.78968e-05
1.75823e-05
1.75827e-05
1.78972e-05
1.85936e-05
1.93766e-05
2.01202e-05
2.07814e-05
2.00406e-05
1.93779e-05
1.86057e-05
1.82707e-05
1.8271e-05
1.86058e-05
1.93777e-05
2.00409e-05
2.07822e-05
2.1344e-05
2.07952e-05
2.0118e-05
1.93917e-05
1.90839e-05
1.9084e-05
1.93917e-05
2.01175e-05
2.07956e-05
2.13447e-05
2.22407e-05
2.13756e-05
2.07998e-05
2.01229e-05
1.98402e-05
1.98401e-05
2.01234e-05
2.07997e-05
2.13761e-05
2.22408e-05
2.18022e-05
2.11536e-05
2.06812e-05
2.01414e-05
1.98834e-05
1.98856e-05
2.01512e-05
2.07142e-05
2.12072e-05
2.17967e-05
2.11928e-05
2.07706e-05
2.01413e-05
1.957e-05
1.92917e-05
1.92976e-05
1.9597e-05
2.02401e-05
2.08006e-05
2.11787e-05
2.07077e-05
2.02223e-05
1.95654e-05
1.88562e-05
1.85556e-05
1.85634e-05
1.88799e-05
1.95818e-05
2.01621e-05
2.0702e-05
2.01472e-05
1.95848e-05
1.88675e-05
1.82137e-05
1.79138e-05
1.79224e-05
1.8221e-05
1.88644e-05
1.95794e-05
2.01502e-05
1.98842e-05
1.92915e-05
1.85555e-05
1.7918e-05
1.76427e-05
1.7644e-05
1.79143e-05
1.85577e-05
1.92947e-05
1.98882e-05
1.9884e-05
1.92919e-05
1.85574e-05
1.79144e-05
1.76434e-05
1.76443e-05
1.79141e-05
1.85576e-05
1.92946e-05
1.9888e-05
2.0146e-05
1.95774e-05
1.88637e-05
1.82193e-05
1.79213e-05
1.79217e-05
1.82197e-05
1.88636e-05
1.9578e-05
2.01479e-05
2.06953e-05
2.01589e-05
1.95801e-05
1.88767e-05
1.85609e-05
1.8561e-05
1.88764e-05
1.95787e-05
2.0158e-05
2.06958e-05
2.11723e-05
2.07989e-05
2.02403e-05
1.9595e-05
1.92967e-05
1.92965e-05
1.95942e-05
2.02385e-05
2.07981e-05
2.11738e-05
2.17956e-05
2.12081e-05
2.07176e-05
2.0152e-05
1.98878e-05
1.98874e-05
2.01522e-05
2.07172e-05
2.12089e-05
2.1798e-05
2.12448e-05
2.07331e-05
2.03661e-05
1.99226e-05
1.9684e-05
1.9687e-05
1.99346e-05
2.04029e-05
2.07876e-05
2.12359e-05
2.0775e-05
2.05133e-05
1.99986e-05
1.94949e-05
1.92302e-05
1.92359e-05
1.9523e-05
2.01021e-05
2.05481e-05
2.07627e-05
2.03896e-05
2.00778e-05
1.94934e-05
1.88411e-05
1.85533e-05
1.85594e-05
1.88624e-05
1.95086e-05
2.0018e-05
2.03874e-05
1.99226e-05
1.95062e-05
1.88511e-05
1.82409e-05
1.79484e-05
1.79554e-05
1.82444e-05
1.88442e-05
1.94991e-05
1.99288e-05
1.96806e-05
1.92262e-05
1.85508e-05
1.79517e-05
1.7691e-05
1.76917e-05
1.7946e-05
1.85504e-05
1.9228e-05
1.96854e-05
1.96813e-05
1.92258e-05
1.85497e-05
1.7945e-05
1.769e-05
1.76912e-05
1.79453e-05
1.855e-05
1.92281e-05
1.96851e-05
1.9924e-05
1.94971e-05
1.88415e-05
1.82398e-05
1.79515e-05
1.79524e-05
1.82416e-05
1.88427e-05
1.94982e-05
1.9926e-05
2.0378e-05
2.00139e-05
1.95035e-05
1.88547e-05
1.85522e-05
1.85526e-05
1.88557e-05
1.95033e-05
2.00139e-05
2.03793e-05
2.075e-05
2.05438e-05
2.00971e-05
1.95148e-05
1.92292e-05
1.92291e-05
1.95148e-05
2.00958e-05
2.05433e-05
2.07521e-05
2.12316e-05
2.07899e-05
2.04037e-05
1.99303e-05
1.96845e-05
1.96838e-05
1.993e-05
2.0402e-05
2.07888e-05
2.12327e-05
2.06976e-05
2.01727e-05
1.99039e-05
1.95374e-05
1.93166e-05
1.93193e-05
1.95485e-05
1.99411e-05
2.0227e-05
2.069e-05
2.02109e-05
2.01002e-05
1.9684e-05
1.92314e-05
1.89788e-05
1.89833e-05
1.92568e-05
1.97849e-05
2.01341e-05
2.02018e-05
1.99201e-05
1.97592e-05
1.92377e-05
1.863e-05
1.83492e-05
1.83532e-05
1.86469e-05
1.92475e-05
1.96953e-05
1.99186e-05
1.95317e-05
1.92403e-05
1.864e-05
1.80639e-05
1.77747e-05
1.77804e-05
1.8064e-05
1.86282e-05
1.92285e-05
1.9537e-05
1.93105e-05
1.89739e-05
1.83473e-05
1.77787e-05
1.75263e-05
1.75265e-05
1.77717e-05
1.83445e-05
1.89727e-05
1.93131e-05
1.93116e-05
1.89729e-05
1.83444e-05
1.77708e-05
1.75252e-05
1.75263e-05
1.77713e-05
1.83444e-05
1.89735e-05
1.9313e-05
1.95354e-05
1.92297e-05
1.86263e-05
1.80601e-05
1.77778e-05
1.77787e-05
1.80621e-05
1.86278e-05
1.92301e-05
1.95362e-05
1.99121e-05
1.96954e-05
1.92431e-05
1.86402e-05
1.83474e-05
1.83478e-05
1.86416e-05
1.92438e-05
1.96955e-05
1.99138e-05
2.01874e-05
2.01313e-05
1.97778e-05
1.92475e-05
1.89761e-05
1.8976e-05
1.92478e-05
1.97776e-05
2.01311e-05
2.01908e-05
2.06823e-05
2.02306e-05
1.99384e-05
1.95409e-05
1.93139e-05
1.9313e-05
1.95404e-05
1.99367e-05
2.0228e-05
2.0683e-05
2.03103e-05
1.95683e-05
1.9366e-05
1.90575e-05
1.88543e-05
1.88576e-05
1.90699e-05
1.94054e-05
1.96258e-05
2.03095e-05
1.96027e-05
1.96149e-05
1.92755e-05
1.88624e-05
1.86223e-05
1.8627e-05
1.88883e-05
1.9375e-05
1.96459e-05
1.95951e-05
1.93786e-05
1.9351e-05
1.8883e-05
1.83114e-05
1.80367e-05
1.80411e-05
1.83283e-05
1.88905e-05
1.92829e-05
1.93749e-05
1.9054e-05
1.88764e-05
1.83245e-05
1.77765e-05
1.7491e-05
1.74972e-05
1.77774e-05
1.83119e-05
1.88609e-05
1.90567e-05
1.88519e-05
1.86229e-05
1.80398e-05
1.74975e-05
1.72513e-05
1.72521e-05
1.74915e-05
1.80369e-05
1.86201e-05
1.88524e-05
1.88535e-05
1.86219e-05
1.80371e-05
1.74913e-05
1.72524e-05
1.72533e-05
1.74918e-05
1.8037e-05
1.8621e-05
1.88529e-05
1.90603e-05
1.88651e-05
1.8312e-05
1.7777e-05
1.74997e-05
1.75001e-05
1.77781e-05
1.83126e-05
1.88642e-05
1.90593e-05
1.93782e-05
1.92881e-05
1.88892e-05
1.83267e-05
1.80419e-05
1.80419e-05
1.83276e-05
1.88897e-05
1.92873e-05
1.9378e-05
1.95895e-05
1.96459e-05
1.93683e-05
1.88827e-05
1.86255e-05
1.86254e-05
1.88835e-05
1.93692e-05
1.96462e-05
1.95917e-05
2.03037e-05
1.96276e-05
1.93993e-05
1.90633e-05
1.88554e-05
1.88548e-05
1.90634e-05
1.9399e-05
1.96263e-05
2.03047e-05
2.02472e-05
1.90239e-05
1.88225e-05
1.85511e-05
1.8363e-05
1.83651e-05
1.85609e-05
1.88575e-05
1.90738e-05
2.02422e-05
1.90539e-05
1.91191e-05
1.88358e-05
1.84553e-05
1.82276e-05
1.82322e-05
1.84809e-05
1.89306e-05
1.91391e-05
1.90345e-05
1.88371e-05
1.89148e-05
1.84926e-05
1.79525e-05
1.76847e-05
1.76903e-05
1.79713e-05
1.84991e-05
1.88402e-05
1.88218e-05
1.85546e-05
1.8477e-05
1.79696e-05
1.7447e-05
1.7167e-05
1.71745e-05
1.74508e-05
1.79586e-05
1.84582e-05
1.855e-05
1.83657e-05
1.82345e-05
1.76933e-05
1.71762e-05
1.69361e-05
1.69376e-05
1.71716e-05
1.76915e-05
1.82308e-05
1.83629e-05
1.83658e-05
1.82328e-05
1.76917e-05
1.71728e-05
1.69399e-05
1.69402e-05
1.71728e-05
1.76916e-05
1.82311e-05
1.83632e-05
1.85567e-05
1.84631e-05
1.79606e-05
1.74549e-05
1.71828e-05
1.71825e-05
1.74544e-05
1.796e-05
1.84612e-05
1.85538e-05
1.88338e-05
1.88486e-05
1.85021e-05
1.79769e-05
1.76995e-05
1.76988e-05
1.79765e-05
1.85016e-05
1.88464e-05
1.88305e-05
1.90401e-05
1.91425e-05
1.89277e-05
1.84826e-05
1.82384e-05
1.82382e-05
1.84831e-05
1.89288e-05
1.9142e-05
1.90395e-05
2.024e-05
1.90727e-05
1.88498e-05
1.8558e-05
1.83667e-05
1.83665e-05
1.85589e-05
1.88512e-05
1.90723e-05
2.02401e-05
2.04602e-05
1.86035e-05
1.83106e-05
1.80559e-05
1.78816e-05
1.78832e-05
1.80645e-05
1.83423e-05
1.86463e-05
2.0447e-05
1.86314e-05
1.86395e-05
1.83984e-05
1.80504e-05
1.78379e-05
1.78436e-05
1.80791e-05
1.8494e-05
1.8655e-05
1.86017e-05
1.83312e-05
1.84831e-05
1.81058e-05
1.75976e-05
1.73401e-05
1.73481e-05
1.7622e-05
1.81175e-05
1.84101e-05
1.83092e-05
1.80676e-05
1.80799e-05
1.76181e-05
1.71217e-05
1.68502e-05
1.68596e-05
1.71307e-05
1.76129e-05
1.80641e-05
1.8061e-05
1.78885e-05
1.78491e-05
1.73516e-05
1.68603e-05
1.66278e-05
1.66304e-05
1.68586e-05
1.73535e-05
1.78488e-05
1.78869e-05
1.78873e-05
1.78474e-05
1.73516e-05
1.68596e-05
1.66334e-05
1.66337e-05
1.68603e-05
1.73536e-05
1.78482e-05
1.78866e-05
1.80651e-05
1.80651e-05
1.76144e-05
1.7137e-05
1.68714e-05
1.6871e-05
1.71365e-05
1.76146e-05
1.80649e-05
1.80637e-05
1.83231e-05
1.84164e-05
1.81232e-05
1.76331e-05
1.73633e-05
1.73624e-05
1.76324e-05
1.81229e-05
1.8415e-05
1.83193e-05
1.86165e-05
1.86603e-05
1.84975e-05
1.80892e-05
1.78573e-05
1.7857e-05
1.80896e-05
1.84985e-05
1.86598e-05
1.86133e-05
2.0452e-05
1.86449e-05
1.83394e-05
1.807e-05
1.78914e-05
1.78913e-05
1.80707e-05
1.8341e-05
1.86451e-05
2.04504e-05
2.04438e-05
1.83807e-05
1.78657e-05
1.75985e-05
1.74337e-05
1.74353e-05
1.76075e-05
1.78967e-05
1.84192e-05
2.04255e-05
1.84102e-05
1.81979e-05
1.7983e-05
1.76683e-05
1.7472e-05
1.74785e-05
1.76995e-05
1.80804e-05
1.82129e-05
1.8375e-05
1.78956e-05
1.80726e-05
1.7741e-05
1.72662e-05
1.70203e-05
1.70294e-05
1.72939e-05
1.77572e-05
1.80038e-05
1.78722e-05
1.76163e-05
1.77011e-05
1.72869e-05
1.6818e-05
1.65561e-05
1.65662e-05
1.68292e-05
1.72854e-05
1.76891e-05
1.76113e-05
1.74413e-05
1.74824e-05
1.70298e-05
1.65644e-05
1.63397e-05
1.63423e-05
1.65635e-05
1.70335e-05
1.74848e-05
1.74423e-05
1.74394e-05
1.74803e-05
1.703e-05
1.65637e-05
1.63443e-05
1.63446e-05
1.65646e-05
1.70333e-05
1.74834e-05
1.74412e-05
1.76092e-05
1.76848e-05
1.72848e-05
1.6834e-05
1.65756e-05
1.65752e-05
1.6834e-05
1.72862e-05
1.76868e-05
1.76103e-05
1.78787e-05
1.80042e-05
1.77624e-05
1.73047e-05
1.70428e-05
1.70423e-05
1.73043e-05
1.77627e-05
1.80043e-05
1.78766e-05
1.83887e-05
1.82163e-05
1.8088e-05
1.77127e-05
1.74923e-05
1.74922e-05
1.77128e-05
1.80887e-05
1.82162e-05
1.83855e-05
2.04337e-05
1.84174e-05
1.78996e-05
1.76183e-05
1.74452e-05
1.74453e-05
1.76189e-05
1.79011e-05
1.84186e-05
2.0432e-05
1.854e-05
1.83923e-05
1.75188e-05
1.71948e-05
1.70282e-05
1.70304e-05
1.72054e-05
1.75511e-05
1.84298e-05
1.85212e-05
1.84273e-05
1.78053e-05
1.75917e-05
1.73086e-05
1.71277e-05
1.71348e-05
1.73415e-05
1.76911e-05
1.78232e-05
1.83912e-05
1.7556e-05
1.76826e-05
1.73965e-05
1.69554e-05
1.67212e-05
1.67302e-05
1.69837e-05
1.74149e-05
1.76186e-05
1.75353e-05
1.72128e-05
1.7339e-05
1.69737e-05
1.65326e-05
1.62802e-05
1.62897e-05
1.65426e-05
1.69721e-05
1.73292e-05
1.72108e-05
1.70323e-05
1.7133e-05
1.67253e-05
1.6285e-05
1.60678e-05
1.60697e-05
1.62827e-05
1.67279e-05
1.71361e-05
1.70353e-05
1.7031e-05
1.71311e-05
1.67247e-05
1.62822e-05
1.60695e-05
1.60696e-05
1.62826e-05
1.67276e-05
1.71348e-05
1.70341e-05
1.72038e-05
1.73226e-05
1.69698e-05
1.65434e-05
1.62925e-05
1.62925e-05
1.65439e-05
1.69717e-05
1.73255e-05
1.72067e-05
1.7531e-05
1.76134e-05
1.74174e-05
1.69891e-05
1.67358e-05
1.67356e-05
1.69892e-05
1.74178e-05
1.76145e-05
1.75313e-05
1.83961e-05
1.78231e-05
1.76992e-05
1.73513e-05
1.71423e-05
1.71422e-05
1.73512e-05
1.7699e-05
1.78233e-05
1.83941e-05
1.85282e-05
1.84282e-05
1.75584e-05
1.72162e-05
1.70369e-05
1.70369e-05
1.72161e-05
1.75588e-05
1.84297e-05
1.85272e-05
1.34251e-05
1.85548e-05
1.73061e-05
1.68629e-05
1.66745e-05
1.66772e-05
1.68749e-05
1.73391e-05
1.85919e-05
1.34183e-05
1.85945e-05
1.7482e-05
1.7227e-05
1.69677e-05
1.67985e-05
1.68056e-05
1.70002e-05
1.73253e-05
1.7501e-05
1.85597e-05
1.73442e-05
1.7314e-05
1.70676e-05
1.66583e-05
1.64343e-05
1.6442e-05
1.66843e-05
1.70844e-05
1.72515e-05
1.73259e-05
1.68752e-05
1.6991e-05
1.66724e-05
1.62579e-05
1.60141e-05
1.60221e-05
1.62641e-05
1.66669e-05
1.69796e-05
1.68742e-05
1.66739e-05
1.67978e-05
1.64324e-05
1.60156e-05
1.58052e-05
1.58057e-05
1.60103e-05
1.64315e-05
1.67982e-05
1.66761e-05
1.66743e-05
1.67965e-05
1.64308e-05
1.60102e-05
1.58037e-05
1.58036e-05
1.60093e-05
1.64314e-05
1.67982e-05
1.66758e-05
1.68684e-05
1.69759e-05
1.6665e-05
1.62613e-05
1.60183e-05
1.60184e-05
1.62619e-05
1.6666e-05
1.69773e-05
1.68701e-05
1.73151e-05
1.72452e-05
1.7084e-05
1.66825e-05
1.64384e-05
1.64386e-05
1.66826e-05
1.70835e-05
1.72455e-05
1.73158e-05
1.85545e-05
1.74988e-05
1.73306e-05
1.70025e-05
1.68043e-05
1.68042e-05
1.70016e-05
1.73289e-05
1.7498e-05
1.85533e-05
1.34215e-05
1.85916e-05
1.73472e-05
1.68804e-05
1.66775e-05
1.66773e-05
1.68792e-05
1.73455e-05
1.85917e-05
1.34221e-05
2.92418e-05
1.84497e-05
1.72417e-05
1.66184e-05
1.63819e-05
1.63855e-05
1.66325e-05
1.72767e-05
1.84886e-05
2.92315e-05
1.84935e-05
1.72447e-05
1.68886e-05
1.6638e-05
1.64759e-05
1.64831e-05
1.66705e-05
1.69858e-05
1.72645e-05
1.84622e-05
1.72759e-05
1.69694e-05
1.67474e-05
1.63653e-05
1.61495e-05
1.61563e-05
1.6389e-05
1.67617e-05
1.69066e-05
1.72593e-05
1.66239e-05
1.66549e-05
1.63763e-05
1.59856e-05
1.57492e-05
1.5756e-05
1.59888e-05
1.63671e-05
1.66408e-05
1.66227e-05
1.63793e-05
1.64723e-05
1.61449e-05
1.57493e-05
1.55451e-05
1.55449e-05
1.57422e-05
1.61413e-05
1.64703e-05
1.63805e-05
1.63815e-05
1.64717e-05
1.61425e-05
1.57423e-05
1.55422e-05
1.55423e-05
1.57411e-05
1.61418e-05
1.64718e-05
1.63817e-05
1.66211e-05
1.66411e-05
1.63657e-05
1.59836e-05
1.57491e-05
1.57496e-05
1.59848e-05
1.63666e-05
1.66417e-05
1.66219e-05
1.72479e-05
1.69019e-05
1.67578e-05
1.6381e-05
1.61472e-05
1.61478e-05
1.6382e-05
1.67578e-05
1.69024e-05
1.72491e-05
1.84494e-05
1.72605e-05
1.69848e-05
1.66641e-05
1.64759e-05
1.64761e-05
1.66639e-05
1.69836e-05
1.72603e-05
1.84502e-05
2.92315e-05
1.84895e-05
1.72812e-05
1.66307e-05
1.63818e-05
1.63817e-05
1.66296e-05
1.72791e-05
1.84889e-05
2.92366e-05
9.19848e-05
1.70835e-05
1.72808e-05
1.64795e-05
1.61692e-05
1.61721e-05
1.64915e-05
1.73121e-05
1.71138e-05
9.19207e-05
1.71216e-05
1.70969e-05
1.65845e-05
1.6319e-05
1.61578e-05
1.61643e-05
1.63489e-05
1.66766e-05
1.71119e-05
1.70916e-05
1.73034e-05
1.66567e-05
1.64326e-05
1.60724e-05
1.58626e-05
1.58683e-05
1.6093e-05
1.64426e-05
1.65904e-05
1.7284e-05
1.64753e-05
1.63296e-05
1.60817e-05
1.5712e-05
1.54818e-05
1.54878e-05
1.5713e-05
1.60691e-05
1.63122e-05
1.64714e-05
1.61634e-05
1.61529e-05
1.58585e-05
1.5483e-05
1.52847e-05
1.52843e-05
1.54755e-05
1.5854e-05
1.61497e-05
1.61632e-05
1.61651e-05
1.61517e-05
1.58555e-05
1.54759e-05
1.52827e-05
1.52831e-05
1.54752e-05
1.5855e-05
1.61521e-05
1.61653e-05
1.64732e-05
1.63149e-05
1.6068e-05
1.57084e-05
1.5483e-05
1.54839e-05
1.57103e-05
1.60697e-05
1.63163e-05
1.64746e-05
1.72759e-05
1.65881e-05
1.6436e-05
1.60828e-05
1.586e-05
1.58609e-05
1.60848e-05
1.64375e-05
1.65901e-05
1.7279e-05
1.70742e-05
1.71063e-05
1.66681e-05
1.63363e-05
1.61556e-05
1.61563e-05
1.63376e-05
1.66691e-05
1.71086e-05
1.70796e-05
9.19197e-05
1.71145e-05
1.73082e-05
1.64812e-05
1.61649e-05
1.61653e-05
1.64816e-05
1.73082e-05
1.71142e-05
9.19234e-05
0.000217113
1.39021e-05
1.72053e-05
1.64233e-05
1.60377e-05
1.604e-05
1.64332e-05
1.72312e-05
1.39249e-05
0.000216982
1.39332e-05
1.69888e-05
1.63319e-05
1.60194e-05
1.58529e-05
1.5858e-05
1.60453e-05
1.6416e-05
1.69946e-05
1.39049e-05
1.7219e-05
1.64002e-05
1.61342e-05
1.57887e-05
1.55834e-05
1.55879e-05
1.58051e-05
1.61369e-05
1.63261e-05
1.71937e-05
1.64187e-05
1.60327e-05
1.58008e-05
1.54486e-05
1.52231e-05
1.52282e-05
1.54468e-05
1.5783e-05
1.60082e-05
1.64089e-05
1.60365e-05
1.5855e-05
1.55863e-05
1.52286e-05
1.50351e-05
1.50342e-05
1.52194e-05
1.55781e-05
1.58467e-05
1.60322e-05
1.60364e-05
1.58522e-05
1.55826e-05
1.52227e-05
1.50355e-05
1.50353e-05
1.52204e-05
1.5579e-05
1.58484e-05
1.60338e-05
1.64155e-05
1.60147e-05
1.57852e-05
1.54468e-05
1.52296e-05
1.52299e-05
1.54468e-05
1.57837e-05
1.60123e-05
1.6414e-05
1.7196e-05
1.63295e-05
1.61327e-05
1.57989e-05
1.55856e-05
1.55859e-05
1.57993e-05
1.61318e-05
1.63281e-05
1.71954e-05
1.38985e-05
1.69927e-05
1.64062e-05
1.60339e-05
1.58536e-05
1.58538e-05
1.60342e-05
1.64058e-05
1.6992e-05
1.39007e-05
0.000216983
1.39263e-05
1.72214e-05
1.64204e-05
1.60349e-05
1.60353e-05
1.64214e-05
1.72224e-05
1.39249e-05
0.000216982
0.000426405
2.00832e-05
1.64891e-05
1.63494e-05
1.59533e-05
1.59533e-05
1.6353e-05
1.6502e-05
2.01077e-05
0.000426184
2.01074e-05
1.67374e-05
1.61356e-05
1.57412e-05
1.55631e-05
1.55671e-05
1.57636e-05
1.62123e-05
1.67333e-05
2.00639e-05
1.64962e-05
1.62047e-05
1.58475e-05
1.55099e-05
1.53093e-05
1.5313e-05
1.55236e-05
1.58448e-05
1.61231e-05
1.64628e-05
1.63502e-05
1.5762e-05
1.55269e-05
1.51905e-05
1.49698e-05
1.49744e-05
1.51872e-05
1.55058e-05
1.57315e-05
1.63318e-05
1.59589e-05
1.5574e-05
1.53206e-05
1.49802e-05
1.47914e-05
1.47903e-05
1.497e-05
1.53098e-05
1.55609e-05
1.59478e-05
1.59562e-05
1.55695e-05
1.53168e-05
1.49762e-05
1.47947e-05
1.47938e-05
1.4972e-05
1.53102e-05
1.55608e-05
1.59473e-05
1.63435e-05
1.57415e-05
1.5512e-05
1.51936e-05
1.49835e-05
1.49827e-05
1.51908e-05
1.55066e-05
1.57335e-05
1.6335e-05
1.64785e-05
1.61346e-05
1.58473e-05
1.55262e-05
1.53201e-05
1.53192e-05
1.55237e-05
1.58424e-05
1.61264e-05
1.64685e-05
2.00653e-05
1.67407e-05
1.62086e-05
1.57602e-05
1.55702e-05
1.55693e-05
1.57578e-05
1.62039e-05
1.67325e-05
2.00702e-05
0.000426183
2.01052e-05
1.64958e-05
1.63455e-05
1.59519e-05
1.59512e-05
1.63435e-05
1.6492e-05
2.01076e-05
0.000426181
0.000732038
5.37607e-05
1.45119e-05
1.5982e-05
1.57869e-05
1.57884e-05
1.59901e-05
1.45298e-05
5.38286e-05
0.000731753
5.38202e-05
1.59729e-05
1.59894e-05
1.54948e-05
1.53005e-05
1.53065e-05
1.55227e-05
1.60726e-05
1.59757e-05
5.37197e-05
1.45191e-05
1.60649e-05
1.55817e-05
1.52442e-05
1.50512e-05
1.5057e-05
1.5263e-05
1.5585e-05
1.5989e-05
1.44992e-05
1.59932e-05
1.55252e-05
1.52654e-05
1.49449e-05
1.47324e-05
1.47388e-05
1.49467e-05
1.52505e-05
1.54998e-05
1.598e-05
1.57973e-05
1.5316e-05
1.50659e-05
1.47443e-05
1.45626e-05
1.45631e-05
1.47383e-05
1.50604e-05
1.53078e-05
1.57902e-05
1.57934e-05
1.53106e-05
1.50624e-05
1.47417e-05
1.45675e-05
1.45675e-05
1.47404e-05
1.50601e-05
1.53061e-05
1.57878e-05
1.59862e-05
1.55034e-05
1.52532e-05
1.49531e-05
1.47508e-05
1.47507e-05
1.49524e-05
1.52514e-05
1.54994e-05
1.59801e-05
1.45149e-05
1.5998e-05
1.55885e-05
1.52697e-05
1.50696e-05
1.50693e-05
1.52693e-05
1.55872e-05
1.59936e-05
1.45081e-05
5.37107e-05
1.59829e-05
1.60723e-05
1.5526e-05
1.5316e-05
1.53159e-05
1.5526e-05
1.60718e-05
1.59798e-05
5.37227e-05
0.000731732
5.38035e-05
1.45264e-05
1.5991e-05
1.57938e-05
1.5793e-05
1.59894e-05
1.45252e-05
5.38181e-05
0.000731746
0.00113118
0.000122199
1.39114e-05
1.49122e-05
1.52656e-05
1.52675e-05
1.49219e-05
1.39358e-05
0.000122319
0.00113088
0.000122329
1.44098e-05
1.58655e-05
1.52918e-05
1.50724e-05
1.50793e-05
1.53227e-05
1.59529e-05
1.44147e-05
0.000122103
1.39313e-05
1.59476e-05
1.53484e-05
1.49956e-05
1.48087e-05
1.48156e-05
1.5018e-05
1.53567e-05
1.58759e-05
1.39072e-05
1.49298e-05
1.53258e-05
1.5017e-05
1.47103e-05
1.45067e-05
1.45143e-05
1.47158e-05
1.50075e-05
1.53052e-05
1.49215e-05
1.5272e-05
1.50834e-05
1.48193e-05
1.45159e-05
1.43419e-05
1.43433e-05
1.45129e-05
1.48184e-05
1.50799e-05
1.52691e-05
1.5266e-05
1.5076e-05
1.48144e-05
1.4512e-05
1.43449e-05
1.43455e-05
1.45131e-05
1.48165e-05
1.50765e-05
1.52646e-05
1.49152e-05
1.52985e-05
1.50026e-05
1.47164e-05
1.45211e-05
1.45217e-05
1.4718e-05
1.50054e-05
1.53002e-05
1.49142e-05
1.39071e-05
1.58738e-05
1.53548e-05
1.50211e-05
1.48236e-05
1.4824e-05
1.50231e-05
1.53584e-05
1.58758e-05
1.39094e-05
0.000122108
1.44106e-05
1.5949e-05
1.53244e-05
1.50847e-05
1.50854e-05
1.53275e-05
1.59546e-05
1.44149e-05
0.000122106
0.00113083
0.000122287
1.39234e-05
1.49208e-05
1.5268e-05
1.52685e-05
1.49236e-05
1.39242e-05
0.000122293
0.00113085
0.00160721
0.000237451
2.74249e-05
1.33017e-05
1.40683e-05
1.40706e-05
1.33121e-05
2.74685e-05
0.000237643
0.00160697
0.00023767
1.32792e-05
1.56609e-05
1.51232e-05
1.48776e-05
1.48848e-05
1.51544e-05
1.5748e-05
1.32771e-05
0.000237298
2.74767e-05
1.57455e-05
1.51586e-05
1.47687e-05
1.45842e-05
1.45915e-05
1.47924e-05
1.51694e-05
1.5677e-05
2.74062e-05
1.33234e-05
1.51553e-05
1.47874e-05
1.44905e-05
1.42962e-05
1.4304e-05
1.44969e-05
1.47801e-05
1.51366e-05
1.33157e-05
1.40689e-05
1.48812e-05
1.45876e-05
1.43008e-05
1.41348e-05
1.41362e-05
1.42981e-05
1.45876e-05
1.48789e-05
1.40663e-05