/*--------------------------------*- C++ -*----------------------------------*\
| =========                 |                                                 |
| \\      /  F ield         | OpenFOAM: The Open Source CFD Toolbox           |
|  \\    /   O peration     | Version:  2406                                  |
|   \\  /    A nd           | Website:  www.openfoam.com                      |
|    \\/     M anipulation  |                                                 |
\*---------------------------------------------------------------------------*/
FoamFile
{
    version     2.0;
    format      ascii;
    arch        "LSB;label=32;scalar=64";
    class       volVectorField;
    location    "200";
    object      momentError;
}
// * * * * * * * * * * * * * * * * * * * * * * * * * * * * * * * * * * * * * //

dimensions      [0 1 -2 0 0 0 0];

internalField   nonuniform List<vector> 
25000
(
(3.58843e-05 6.22843e-05 -9.10309e-07)
(-0.000241831 -1.34127e-05 2.04305e-06)
(-0.000117229 7.64255e-06 9.00036e-06)
(-5.13524e-05 6.2237e-06 9.68297e-06)
(-2.62582e-05 2.55742e-06 9.74333e-06)
(-1.66147e-05 1.10237e-06 9.67034e-06)
(-1.40254e-05 9.57125e-07 9.81192e-06)
(-1.47373e-05 4.03554e-06 1.05542e-05)
(-1.72101e-05 9.90134e-06 1.19175e-05)
(-1.85131e-05 1.08785e-05 1.35327e-05)
(-3.27588e-05 -0.000227144 2.25455e-06)
(-0.000121858 -0.000102635 6.21411e-06)
(-7.56443e-05 -3.04185e-05 8.57015e-06)
(-4.20082e-05 -9.14421e-06 9.09923e-06)
(-2.36362e-05 -2.64277e-06 9.14528e-06)
(-1.49571e-05 -4.22845e-07 9.0731e-06)
(-1.17397e-05 8.98954e-07 9.14938e-06)
(-1.13013e-05 2.93669e-06 9.71277e-06)
(-1.30673e-05 6.21096e-06 1.08876e-05)
(-1.58238e-05 1.04183e-05 1.26432e-05)
(-6.4661e-07 -0.000117542 1.00257e-05)
(-4.48489e-05 -6.79916e-05 8.95169e-06)
(-4.00055e-05 -3.0093e-05 9.09854e-06)
(-2.73121e-05 -1.26651e-05 9.03159e-06)
(-1.75586e-05 -5.08107e-06 8.90053e-06)
(-1.18695e-05 -1.93638e-06 8.75865e-06)
(-9.3424e-06 -2.43565e-07 8.79736e-06)
(-8.45071e-06 1.3326e-06 9.27469e-06)
(-8.69739e-06 3.73349e-06 1.02356e-05)
(-9.57822e-06 7.48698e-06 1.1724e-05)
(4.78702e-06 -5.73768e-05 1.11233e-05)
(-1.70894e-05 -4.09622e-05 9.90805e-06)
(-2.05002e-05 -2.2524e-05 9.39793e-06)
(-1.69979e-05 -1.13368e-05 9.03701e-06)
(-1.22792e-05 -5.41441e-06 8.81384e-06)
(-9.06803e-06 -2.56029e-06 8.66022e-06)
(-7.36114e-06 -1.04421e-06 8.67079e-06)
(-6.42828e-06 1.80836e-07 9.07912e-06)
(-5.95416e-06 1.50791e-06 9.92883e-06)
(-5.4718e-06 3.75484e-06 1.12209e-05)
(6.75599e-06 -3.38407e-05 1.14756e-05)
(-5.70475e-06 -2.61668e-05 1.0226e-05)
(-1.03284e-05 -1.63407e-05 9.50914e-06)
(-1.0076e-05 -9.23752e-06 9.06843e-06)
(-8.40092e-06 -4.97068e-06 8.83338e-06)
(-6.83535e-06 -2.70878e-06 8.68992e-06)
(-5.88005e-06 -1.53755e-06 8.70453e-06)
(-5.31764e-06 -8.52468e-07 9.10026e-06)
(-4.58021e-06 -1.79436e-07 9.89709e-06)
(-3.56978e-06 5.08494e-07 1.10884e-05)
(7.33662e-06 -2.45437e-05 1.14027e-05)
(4.50979e-07 -1.91329e-05 1.0251e-05)
(-4.23495e-06 -1.2699e-05 9.49015e-06)
(-5.87378e-06 -7.83069e-06 9.02523e-06)
(-5.69852e-06 -4.71591e-06 8.81449e-06)
(-5.32228e-06 -2.95385e-06 8.70214e-06)
(-5.12309e-06 -2.14345e-06 8.75253e-06)
(-4.7488e-06 -1.81216e-06 9.16112e-06)
(-4.33836e-06 -2.05478e-06 9.95348e-06)
(-3.45525e-06 -2.58188e-06 1.11648e-05)
(1.00692e-05 -2.17464e-05 1.14273e-05)
(4.41281e-06 -1.6557e-05 1.02549e-05)
(-4.41555e-07 -1.14351e-05 9.47722e-06)
(-2.84762e-06 -7.58744e-06 9.01673e-06)
(-3.87742e-06 -5.03644e-06 8.82547e-06)
(-4.31368e-06 -3.6213e-06 8.75537e-06)
(-4.66648e-06 -3.08626e-06 8.83148e-06)
(-5.14041e-06 -3.25244e-06 9.28046e-06)
(-5.26302e-06 -4.2867e-06 1.01587e-05)
(-4.81829e-06 -6.25663e-06 1.14394e-05)
(1.39149e-05 -2.22229e-05 1.1902e-05)
(8.62233e-06 -1.66687e-05 1.06482e-05)
(3.04279e-06 -1.17295e-05 9.79472e-06)
(-4.29178e-07 -8.23006e-06 9.30344e-06)
(-2.24707e-06 -5.87125e-06 9.11719e-06)
(-3.58051e-06 -4.72014e-06 9.06064e-06)
(-4.82445e-06 -4.42155e-06 9.19059e-06)
(-5.98739e-06 -5.25776e-06 9.71284e-06)
(-7.44238e-06 -7.15389e-06 1.06865e-05)
(-8.61624e-06 -1.06463e-05 1.21667e-05)
(2.10948e-05 -2.40334e-05 1.29837e-05)
(1.32004e-05 -1.90775e-05 1.15343e-05)
(6.40923e-06 -1.33836e-05 1.05466e-05)
(2.12743e-06 -9.14422e-06 9.96012e-06)
(-8.19473e-07 -6.6753e-06 9.7377e-06)
(-3.03912e-06 -5.6137e-06 9.71407e-06)
(-5.28908e-06 -5.85033e-06 9.89159e-06)
(-7.94744e-06 -7.61192e-06 1.05314e-05)
(-1.09753e-05 -1.09731e-05 1.16842e-05)
(-1.49606e-05 -1.48818e-05 1.33913e-05)
(1.87051e-05 -2.26229e-05 1.42061e-05)
(1.67342e-05 -2.16214e-05 1.30019e-05)
(1.08254e-05 -1.46278e-05 1.17473e-05)
(5.20218e-06 -9.32925e-06 1.09746e-05)
(8.22729e-07 -6.53715e-06 1.06925e-05)
(-2.85045e-06 -5.5747e-06 1.06851e-05)
(-6.72412e-06 -6.42652e-06 1.09817e-05)
(-1.08607e-05 -9.67924e-06 1.18067e-05)
(-1.46967e-05 -1.52668e-05 1.31735e-05)
(-1.56362e-05 -1.65451e-05 1.46729e-05)
(-3.27488e-05 5.4886e-05 -0.000281964)
(-0.000868505 -0.000134536 -0.000139486)
(-0.00040313 -5.61205e-05 -7.60388e-05)
(-0.000221545 -3.72675e-05 -4.79665e-05)
(-0.000131678 -3.86423e-05 -3.43543e-05)
(-8.0115e-05 -3.96922e-05 -2.65882e-05)
(-4.56738e-05 -4.47202e-05 -2.09066e-05)
(-2.28721e-05 -4.40102e-05 -1.52589e-05)
(2.44401e-07 -4.01882e-05 -9.66757e-06)
(1.94011e-05 -3.95342e-05 -2.61383e-06)
(-0.0002447 -0.000811448 -0.000148274)
(-0.000392407 -0.000314457 -0.000108568)
(-0.00028956 -0.00014004 -7.22879e-05)
(-0.00019257 -7.38532e-05 -5.00302e-05)
(-0.000123343 -4.99166e-05 -3.70536e-05)
(-7.68722e-05 -4.03127e-05 -2.94434e-05)
(-4.49877e-05 -3.65754e-05 -2.40102e-05)
(-1.9337e-05 -3.47967e-05 -1.91272e-05)
(2.77486e-06 -3.23835e-05 -1.38571e-05)
(1.99747e-05 -3.09342e-05 -7.12163e-06)
(-0.000115848 -0.00039637 -8.57142e-05)
(-0.000208875 -0.000251455 -7.68609e-05)
(-0.000191247 -0.000142742 -5.98661e-05)
(-0.000145573 -8.40882e-05 -4.61351e-05)
(-0.000102361 -5.40882e-05 -3.65116e-05)
(-6.66704e-05 -3.98075e-05 -3.01509e-05)
(-3.85896e-05 -3.2278e-05 -2.55292e-05)
(-1.58655e-05 -2.83654e-05 -2.11475e-05)
(6.46368e-06 -2.61005e-05 -1.66258e-05)
(2.74414e-05 -2.37136e-05 -1.07411e-05)
(-7.24786e-05 -0.000239652 -5.47811e-05)
(-0.000120308 -0.000180381 -5.52052e-05)
(-0.00012591 -0.000119443 -4.85952e-05)
(-0.000107615 -7.68599e-05 -4.09076e-05)
(-8.01634e-05 -5.1022e-05 -3.45302e-05)
(-5.46579e-05 -3.62757e-05 -2.98032e-05)
(-3.23892e-05 -2.81923e-05 -2.59585e-05)
(-1.1413e-05 -2.36225e-05 -2.22679e-05)
(9.02445e-06 -2.1235e-05 -1.83446e-05)
(3.03906e-05 -2.06323e-05 -1.34117e-05)
(-4.54007e-05 -0.000158364 -3.80711e-05)
(-7.93577e-05 -0.000128845 -4.14272e-05)
(-8.74093e-05 -9.33079e-05 -3.94157e-05)
(-7.80499e-05 -6.39676e-05 -3.58668e-05)
(-6.21823e-05 -4.37841e-05 -3.20595e-05)
(-4.37525e-05 -3.13205e-05 -2.86988e-05)
(-2.54602e-05 -2.34255e-05 -2.5734e-05)
(-7.97099e-06 -1.88573e-05 -2.2535e-05)
(1.06036e-05 -1.62833e-05 -1.89497e-05)
(3.10666e-05 -1.5261e-05 -1.47233e-05)
(-3.56302e-05 -0.000112348 -2.70132e-05)
(-5.31324e-05 -9.34479e-05 -3.18294e-05)
(-6.1362e-05 -7.01815e-05 -3.28336e-05)
(-5.84579e-05 -5.01439e-05 -3.16568e-05)
(-4.76465e-05 -3.54216e-05 -2.96316e-05)
(-3.43676e-05 -2.48995e-05 -2.7462e-05)
(-1.9937e-05 -1.82867e-05 -2.50684e-05)
(-4.14622e-06 -1.38378e-05 -2.21928e-05)
(1.28181e-05 -1.0943e-05 -1.89928e-05)
(3.23648e-05 -9.00092e-06 -1.47337e-05)
(-2.56752e-05 -8.08725e-05 -1.89221e-05)
(-3.89864e-05 -6.7431e-05 -2.49752e-05)
(-4.50516e-05 -5.19832e-05 -2.74597e-05)
(-4.34047e-05 -3.77319e-05 -2.80361e-05)
(-3.67906e-05 -2.65594e-05 -2.72618e-05)
(-2.65988e-05 -1.84088e-05 -2.58824e-05)
(-1.45673e-05 -1.24811e-05 -2.40523e-05)
(-1.00268e-06 -8.2433e-06 -2.14995e-05)
(1.48368e-05 -5.80024e-06 -1.7991e-05)
(3.44162e-05 -3.29156e-06 -1.35904e-05)
(-2.0288e-05 -5.93703e-05 -1.13789e-05)
(-2.79338e-05 -4.82519e-05 -1.85036e-05)
(-3.31018e-05 -3.62043e-05 -2.24571e-05)
(-3.31378e-05 -2.65661e-05 -2.41118e-05)
(-2.80295e-05 -1.78641e-05 -2.43004e-05)
(-2.01676e-05 -1.12969e-05 -2.366e-05)
(-9.97644e-06 -5.63141e-06 -2.21535e-05)
(1.82766e-06 -2.19276e-06 -1.95936e-05)
(1.65511e-05 1.84205e-07 -1.61242e-05)
(3.35395e-05 7.65843e-07 -1.07737e-05)
(-1.14654e-05 -3.49848e-05 -4.47004e-06)
(-2.11899e-05 -2.94669e-05 -1.22825e-05)
(-2.55357e-05 -2.14442e-05 -1.69036e-05)
(-2.54682e-05 -1.41032e-05 -1.95687e-05)
(-2.11957e-05 -8.03478e-06 -2.06076e-05)
(-1.40886e-05 -2.05657e-06 -2.04293e-05)
(-5.44611e-06 3.40038e-06 -1.93151e-05)
(4.22659e-06 7.41866e-06 -1.67472e-05)
(1.70675e-05 9.10246e-06 -1.28049e-05)
(2.81385e-05 1.03857e-05 -7.14189e-06)
(-1.85863e-05 -1.25202e-05 2.57314e-06)
(-2.01282e-05 -1.51893e-05 -4.60345e-06)
(-1.97276e-05 -5.94958e-06 -1.00345e-05)
(-2.01645e-05 9.63895e-07 -1.3947e-05)
(-1.55011e-05 5.54926e-06 -1.58931e-05)
(-8.15784e-06 1.06461e-05 -1.6308e-05)
(-8.99314e-08 1.65345e-05 -1.51157e-05)
(6.93933e-06 1.97654e-05 -1.20677e-05)
(1.89701e-05 1.86166e-05 -7.83674e-06)
(2.98036e-05 2.11503e-05 -1.96058e-06)
(-0.000169792 -0.000164265 -0.000266092)
(0.000126968 -7.14314e-05 -0.000195592)
(3.87417e-05 -6.59376e-05 -0.000153213)
(-6.02209e-06 -5.27566e-05 -0.0001312)
(-1.67354e-05 -4.20406e-05 -0.00011954)
(-9.08704e-06 -3.83407e-05 -0.000112907)
(6.33314e-06 -4.28789e-05 -0.000110007)
(2.20221e-05 -5.37699e-05 -0.00011008)
(4.45053e-05 -6.44159e-05 -0.000113246)
(7.50891e-05 -8.07877e-05 -0.000117626)
(-7.89519e-05 0.000132699 -0.000205629)
(2.95754e-05 3.2705e-05 -0.000175315)
(1.21681e-05 -1.68987e-05 -0.000146346)
(-8.36235e-06 -3.18652e-05 -0.000126858)
(-1.41888e-05 -3.29519e-05 -0.000114762)
(-9.56083e-06 -3.23066e-05 -0.000108016)
(1.10215e-06 -3.42931e-05 -0.000104981)
(1.61514e-05 -3.92538e-05 -0.000105489)
(3.56224e-05 -4.50407e-05 -0.000109357)
(6.48222e-05 -5.84068e-05 -0.000115561)
(-8.25663e-05 5.03653e-05 -0.000167088)
(-2.31399e-05 1.89106e-05 -0.000152567)
(-1.56231e-05 -1.02994e-05 -0.000134884)
(-1.6881e-05 -2.23657e-05 -0.000120162)
(-1.5598e-05 -2.5351e-05 -0.000109824)
(-1.01076e-05 -2.56102e-05 -0.000103715)
(-3.75014e-07 -2.61691e-05 -0.000101274)
(1.2039e-05 -2.85009e-05 -0.000102184)
(2.88154e-05 -3.39656e-05 -0.000106486)
(5.2227e-05 -4.46456e-05 -0.000113572)
(-7.18484e-05 6.41628e-06 -0.000144705)
(-4.24257e-05 7.09278e-07 -0.000135416)
(-2.9296e-05 -1.0701e-05 -0.000123934)
(-2.25857e-05 -1.70851e-05 -0.000113231)
(-1.70117e-05 -1.94439e-05 -0.000105271)
(-1.01504e-05 -1.95849e-05 -0.000100539)
(-1.38122e-06 -1.96319e-05 -9.87889e-05)
(9.58657e-06 -2.08659e-05 -0.000100168)
(2.29436e-05 -2.38359e-05 -0.000104875)
(3.88287e-05 -3.20307e-05 -0.000112452)
(-6.1345e-05 -5.77205e-06 -0.000131308)
(-4.63064e-05 -5.63535e-06 -0.000123755)
(-3.45386e-05 -9.87246e-06 -0.000115066)
(-2.57533e-05 -1.30476e-05 -0.000107404)
(-1.80417e-05 -1.43399e-05 -0.000101622)
(-1.0165e-05 -1.44739e-05 -9.81987e-05)
(-1.30133e-06 -1.39502e-05 -9.72873e-05)
(8.79738e-06 -1.36392e-05 -9.91877e-05)
(1.95457e-05 -1.46631e-05 -0.000104195)
(3.07362e-05 -1.71308e-05 -0.000112082)
(-5.77576e-05 -2.26278e-07 -0.000122051)
(-4.84124e-05 -3.31383e-06 -0.000115743)
(-3.71614e-05 -6.48185e-06 -0.000109104)
(-2.71979e-05 -8.41556e-06 -0.000103353)
(-1.84635e-05 -9.2189e-06 -9.91868e-05)
(-9.71541e-06 -8.93907e-06 -9.69023e-05)
(-4.05413e-07 -8.10525e-06 -9.67585e-05)
(9.23918e-06 -6.89843e-06 -9.91078e-05)
(2.01394e-05 -4.50966e-06 -0.000104416)
(3.14717e-05 -1.26873e-06 -0.000112529)
(-6.45676e-05 1.23317e-05 -0.000116298)
(-5.24649e-05 4.94781e-06 -0.000111015)
(-3.94075e-05 5.76788e-07 -0.000105615)
(-2.84131e-05 -1.72409e-06 -0.0001013)
(-1.8545e-05 -2.67755e-06 -9.82951e-05)
(-9.07458e-06 -2.63259e-06 -9.69161e-05)
(6.02704e-07 -1.43953e-06 -9.73173e-05)
(1.20629e-05 1.08698e-06 -0.000100074)
(2.44898e-05 5.40143e-06 -0.00010561)
(3.98434e-05 1.42583e-05 -0.000113753)
(-7.79495e-05 2.67114e-05 -0.000113524)
(-5.93283e-05 1.71367e-05 -0.000109229)
(-4.33451e-05 1.16022e-05 -0.000104924)
(-3.03239e-05 7.53779e-06 -0.000101561)
(-1.93557e-05 5.51344e-06 -9.94214e-05)
(-8.48184e-06 5.24132e-06 -9.86126e-05)
(3.08843e-06 6.90421e-06 -9.9503e-05)
(1.53726e-05 1.05622e-05 -0.000102447)
(3.16628e-05 1.67322e-05 -0.000107996)
(5.39453e-05 2.77003e-05 -0.000115824)
(-9.22346e-05 4.64211e-05 -0.000114102)
(-6.66976e-05 3.486e-05 -0.000110727)
(-4.8979e-05 2.7046e-05 -0.000107261)
(-3.47423e-05 1.92242e-05 -0.000104603)
(-2.10126e-05 1.44851e-05 -0.000103012)
(-7.66047e-06 1.37367e-05 -0.000102686)
(5.88285e-06 1.67802e-05 -0.000103787)
(2.12879e-05 2.33948e-05 -0.000106749)
(3.9157e-05 3.14955e-05 -0.000111927)
(6.61325e-05 4.45505e-05 -0.000119043)
(-0.00010481 7.52145e-05 -0.000116801)
(-7.92882e-05 6.23968e-05 -0.000114918)
(-6.0463e-05 4.81589e-05 -0.000112192)
(-4.37971e-05 3.25782e-05 -0.000110184)
(-2.52155e-05 2.28581e-05 -0.000109043)
(-5.98913e-06 2.11289e-05 -0.000108955)
(1.31705e-05 2.8052e-05 -0.000110104)
(3.07745e-05 4.17863e-05 -0.00011272)
(5.16795e-05 5.49537e-05 -0.000117053)
(7.84925e-05 7.07281e-05 -0.000122175)
(2.84918e-05 -2.036e-06 -0.000183904)
(4.50253e-05 1.76092e-05 -0.000180083)
(5.15677e-05 2.94298e-05 -0.000171521)
(1.31277e-05 3.78453e-05 -0.000165644)
(-7.1239e-06 4.72335e-05 -0.000161628)
(-1.88294e-05 5.37456e-05 -0.000159733)
(-3.15257e-05 5.53431e-05 -0.000161565)
(-4.82784e-05 5.3769e-05 -0.000167389)
(-6.3506e-05 5.14752e-05 -0.000176662)
(-7.39396e-05 4.26819e-05 -0.000189349)
(5.15934e-05 2.72775e-05 -0.0001876)
(6.34286e-05 4.09896e-05 -0.000174464)
(4.37465e-05 1.81909e-05 -0.000164957)
(1.83156e-05 1.54429e-05 -0.000158205)
(-3.75636e-07 2.02251e-05 -0.000153774)
(-1.51567e-05 2.31887e-05 -0.00015195)
(-3.03459e-05 2.42637e-05 -0.00015345)
(-4.74689e-05 2.35898e-05 -0.000159222)
(-6.54912e-05 2.3516e-05 -0.000169868)
(-8.15848e-05 1.67503e-05 -0.000185312)
(5.97079e-05 4.87548e-05 -0.000184954)
(3.93135e-05 3.31946e-05 -0.000170859)
(2.90497e-05 1.62471e-05 -0.000160561)
(1.67904e-05 9.81766e-06 -0.000152828)
(1.33172e-06 8.63102e-06 -0.000148161)
(-1.40511e-05 8.61887e-06 -0.000146475)
(-2.98352e-05 8.57719e-06 -0.000148132)
(-4.76621e-05 8.6437e-06 -0.000154152)
(-6.77079e-05 8.14571e-06 -0.000165164)
(-9.06253e-05 4.41942e-06 -0.000181684)
(5.88694e-05 1.96099e-05 -0.00018345)
(3.18047e-05 1.71448e-05 -0.000168422)
(2.13106e-05 1.15712e-05 -0.000157053)
(1.12887e-05 5.37354e-06 -0.000149203)
(-1.2802e-06 1.23925e-06 -0.000144675)
(-1.50365e-05 -8.14417e-07 -0.000143296)
(-3.02831e-05 -1.50642e-06 -0.000145299)
(-4.81045e-05 -1.87935e-06 -0.000151473)
(-7.0059e-05 -2.61886e-06 -0.000162619)
(-9.87748e-05 -4.85625e-06 -0.000179284)
(6.03433e-05 3.78289e-06 -0.000181908)
(3.13618e-05 3.70949e-06 -0.000166743)
(1.75443e-05 1.78891e-06 -0.000155255)
(6.63483e-06 -2.41099e-06 -0.000147364)
(-4.80375e-06 -6.03436e-06 -0.000143049)
(-1.67699e-05 -8.20087e-06 -0.000142019)
(-3.10328e-05 -9.45193e-06 -0.000144209)
(-4.91919e-05 -1.01047e-05 -0.000150651)
(-7.19907e-05 -1.08398e-05 -0.000162036)
(-0.00010404 -1.22651e-05 -0.000178538)
(5.80131e-05 -5.05752e-06 -0.000181314)
(2.967e-05 -7.786e-06 -0.000166408)
(1.51446e-05 -9.9705e-06 -0.000154847)
(3.4668e-06 -1.24326e-05 -0.000147269)
(-7.07904e-06 -1.48189e-05 -0.000143196)
(-1.84256e-05 -1.6395e-05 -0.000142285)
(-3.22029e-05 -1.73675e-05 -0.000144857)
(-4.96142e-05 -1.80546e-05 -0.00015151)
(-7.26663e-05 -1.84197e-05 -0.000162865)
(-0.00010538 -1.85555e-05 -0.00017966)
(5.25765e-05 -1.67503e-05 -0.000182629)
(2.61571e-05 -2.10697e-05 -0.000167807)
(1.28472e-05 -2.37658e-05 -0.000156652)
(1.73446e-06 -2.55858e-05 -0.000149251)
(-8.80021e-06 -2.70154e-05 -0.000145412)
(-1.92771e-05 -2.77939e-05 -0.000144777)
(-3.25498e-05 -2.82012e-05 -0.000147282)
(-4.99534e-05 -2.82667e-05 -0.000153964)
(-7.18809e-05 -2.7917e-05 -0.000165708)
(-0.000102183 -2.60647e-05 -0.000182452)
(4.3676e-05 -3.36296e-05 -0.000187171)
(2.23061e-05 -3.85507e-05 -0.0001727)
(1.09339e-05 -4.12625e-05 -0.000161752)
(3.83366e-07 -4.33756e-05 -0.000154742)
(-9.24635e-06 -4.41754e-05 -0.000151066)
(-1.96021e-05 -4.43226e-05 -0.000150251)
(-3.25291e-05 -4.35522e-05 -0.0001528)
(-4.88696e-05 -4.23041e-05 -0.000159344)
(-6.89655e-05 -3.99616e-05 -0.000170508)
(-9.5296e-05 -3.63766e-05 -0.000187304)
(3.73959e-05 -5.30949e-05 -0.000194604)
(1.94764e-05 -5.98049e-05 -0.000181713)
(9.05039e-06 -6.33422e-05 -0.00017175)
(-5.52011e-07 -6.61144e-05 -0.000164927)
(-9.4854e-06 -6.73081e-05 -0.000161116)
(-1.86502e-05 -6.65624e-05 -0.000160182)
(-3.05096e-05 -6.36978e-05 -0.000162178)
(-4.59892e-05 -5.93612e-05 -0.000168025)
(-6.47146e-05 -5.43795e-05 -0.000178504)
(-8.70764e-05 -4.65258e-05 -0.000193281)
(2.80617e-05 -7.19571e-05 -0.000205062)
(1.35403e-05 -8.23049e-05 -0.000195859)
(6.50458e-06 -8.97387e-05 -0.000187193)
(-1.89567e-06 -9.61681e-05 -0.000180294)
(-9.02824e-06 -9.9454e-05 -0.000176004)
(-1.61391e-05 -9.78735e-05 -0.000174383)
(-2.59546e-05 -9.14672e-05 -0.00017585)
(-3.90146e-05 -8.03649e-05 -0.000180972)
(-5.43069e-05 -6.91357e-05 -0.000189203)
(-7.14646e-05 -5.50584e-05 -0.000200585)
(0.0001985 0.000141424 -0.000142077)
(0.000146293 0.000139026 -0.000133072)
(8.3341e-05 0.00012075 -0.000130348)
(3.17146e-05 0.000107534 -0.000128579)
(4.08558e-07 0.000102837 -0.000126771)
(-3.10857e-05 0.000105662 -0.00012637)
(-6.76019e-05 0.000113257 -0.000128366)
(-0.000104719 0.000121528 -0.000132013)
(-0.000145175 0.00011985 -0.000136388)
(-0.000180432 0.000109118 -0.000142447)
(0.000202259 9.42203e-05 -0.000138815)
(0.000118763 6.55745e-05 -0.000132964)
(6.63689e-05 4.66799e-05 -0.000129865)
(3.03038e-05 4.70714e-05 -0.00012794)
(2.20785e-06 4.91309e-05 -0.000126697)
(-2.64291e-05 5.01892e-05 -0.000126579)
(-6.0351e-05 5.40481e-05 -0.00012795)
(-0.000100181 5.75455e-05 -0.000130828)
(-0.000146904 5.76567e-05 -0.000135373)
(-0.000202371 5.26316e-05 -0.000141713)
(0.000190307 4.60787e-05 -0.000140995)
(0.000101835 2.72939e-05 -0.000134531)
(6.23257e-05 2.25269e-05 -0.000129841)
(3.24261e-05 2.25376e-05 -0.000127303)
(2.96776e-06 2.25337e-05 -0.000126384)
(-2.54875e-05 2.22347e-05 -0.000126416)
(-5.83883e-05 2.29685e-05 -0.000127551)
(-9.93092e-05 2.49023e-05 -0.000130145)
(-0.000150276 2.70219e-05 -0.000134433)
(-0.000216249 2.7544e-05 -0.000140697)
(0.000177141 9.74677e-06 -0.000143347)
(0.00010316 5.62807e-06 -0.000136257)
(6.34235e-05 6.02113e-06 -0.000130744)
(3.08216e-05 4.67934e-06 -0.000127747)
(2.0342e-06 3.48796e-06 -0.000126533)
(-2.61862e-05 2.47466e-06 -0.000126438)
(-5.84468e-05 2.61029e-06 -0.000127452)
(-9.84312e-05 3.39482e-06 -0.000129842)
(-0.000150383 4.78013e-06 -0.000133902)
(-0.000218 8.33072e-06 -0.000139888)
(0.000169421 -9.25543e-06 -0.000144108)
(0.000103194 -1.13496e-05 -0.000137463)
(6.30814e-05 -1.11934e-05 -0.000132199)
(3.05557e-05 -1.20697e-05 -0.000128786)
(8.89393e-07 -1.27271e-05 -0.000127103)
(-2.6638e-05 -1.30364e-05 -0.000126747)
(-5.84131e-05 -1.34929e-05 -0.000127551)
(-9.93849e-05 -1.3705e-05 -0.000129852)
(-0.000150444 -1.35312e-05 -0.000133837)
(-0.000217468 -1.29348e-05 -0.000139504)
(0.000163062 -3.00395e-05 -0.000144697)
(0.000103011 -2.99283e-05 -0.000138377)
(6.33152e-05 -2.97373e-05 -0.000133242)
(2.95994e-05 -2.98918e-05 -0.000129792)
(1.15401e-06 -3.00613e-05 -0.000127855)
(-2.70808e-05 -2.98741e-05 -0.000127238)
(-5.95441e-05 -2.99133e-05 -0.000128009)
(-9.93527e-05 -3.04045e-05 -0.00013028)
(-0.000151429 -3.18313e-05 -0.000134132)
(-0.000219932 -3.43781e-05 -0.000139819)
(0.000165524 -5.87247e-05 -0.000145592)
(0.000102753 -5.60478e-05 -0.000139205)
(6.29879e-05 -5.58532e-05 -0.000134217)
(3.02548e-05 -5.556e-05 -0.000130766)
(9.5097e-07 -5.49341e-05 -0.000128805)
(-2.64573e-05 -5.36934e-05 -0.000128203)
(-5.87465e-05 -5.26651e-05 -0.000128876)
(-0.000100632 -5.23115e-05 -0.000131115)
(-0.000152715 -5.27326e-05 -0.00013518)
(-0.000223257 -5.62163e-05 -0.00014085)
(0.000165716 -9.22848e-05 -0.000146867)
(0.000103593 -9.34496e-05 -0.00014045)
(6.3841e-05 -9.42893e-05 -0.000135502)
(3.08542e-05 -9.41367e-05 -0.000132293)
(3.2214e-06 -9.18379e-05 -0.000130462)
(-2.47757e-05 -8.88678e-05 -0.00012985)
(-5.77518e-05 -8.57045e-05 -0.000130652)
(-9.77305e-05 -8.22713e-05 -0.000132947)
(-0.000150513 -7.898e-05 -0.000136798)
(-0.000221432 -7.59473e-05 -0.000142712)
(0.000159442 -0.000134845 -0.000147933)
(9.96028e-05 -0.000143261 -0.000142247)
(6.40444e-05 -0.000148432 -0.000137859)
(3.42784e-05 -0.000146223 -0.000134863)
(6.96517e-06 -0.000141224 -0.000133165)
(-2.03445e-05 -0.000135481 -0.000132751)
(-5.21322e-05 -0.000129005 -0.000133594)
(-9.22461e-05 -0.000122071 -0.000135852)
(-0.000140106 -0.000111673 -0.000139782)
(-0.000203552 -9.88612e-05 -0.000144825)
(0.000138036 -0.000184063 -0.000149782)
(9.25562e-05 -0.00020856 -0.000145311)
(6.71089e-05 -0.0002195 -0.000141623)
(4.27933e-05 -0.00021491 -0.00013874)
(1.59735e-05 -0.000205477 -0.000137039)
(-1.27881e-05 -0.000195502 -0.000136698)
(-4.56391e-05 -0.000186378 -0.000137857)
(-8.00446e-05 -0.00017416 -0.000140426)
(-0.000121454 -0.00015271 -0.000143749)
(-0.000166288 -0.000126592 -0.000148083)
(0.00017851 9.95779e-05 -6.58156e-05)
(0.000107602 8.98457e-05 -7.18081e-05)
(5.82498e-05 7.70689e-05 -7.38933e-05)
(2.32394e-05 6.80687e-05 -7.34311e-05)
(-3.16241e-06 6.55169e-05 -7.18866e-05)
(-3.83711e-05 7.1411e-05 -7.03138e-05)
(-7.67004e-05 8.57427e-05 -6.81478e-05)
(-0.000110041 0.000102328 -6.42033e-05)
(-0.00014386 0.000105273 -5.84696e-05)
(-0.000162509 8.69219e-05 -5.11646e-05)
(0.000183715 3.86525e-05 -7.02576e-05)
(9.99175e-05 2.80652e-05 -7.62564e-05)
(5.48916e-05 2.63356e-05 -7.78307e-05)
(2.51414e-05 3.12025e-05 -7.78191e-05)
(-1.33059e-06 3.17125e-05 -7.70956e-05)
(-3.06206e-05 3.36958e-05 -7.58904e-05)
(-6.39194e-05 4.19763e-05 -7.35126e-05)
(-0.000101274 5.04602e-05 -6.8983e-05)
(-0.000144919 5.3901e-05 -6.18188e-05)
(-0.000194699 5.02007e-05 -5.22892e-05)
(0.000177715 1.04979e-05 -7.11305e-05)
(0.000101627 4.67982e-06 -7.69769e-05)
(6.12963e-05 9.39537e-06 -7.88479e-05)
(2.83867e-05 1.23057e-05 -7.99965e-05)
(-7.50219e-07 1.25933e-05 -8.02627e-05)
(-2.76419e-05 1.37524e-05 -7.9204e-05)
(-5.8893e-05 1.72485e-05 -7.65856e-05)
(-9.73235e-05 2.1953e-05 -7.15454e-05)
(-0.000145473 2.64776e-05 -6.35681e-05)
(-0.000206445 2.94215e-05 -5.23843e-05)
(0.000170305 -2.92062e-06 -7.01888e-05)
(0.000108076 -5.41321e-06 -7.66234e-05)
(6.55484e-05 -4.58188e-06 -7.98625e-05)
(2.95097e-05 -3.87388e-06 -8.16884e-05)
(4.56626e-07 -2.46964e-06 -8.21255e-05)
(-2.62446e-05 -1.37444e-06 -8.09831e-05)
(-5.67281e-05 7.6645e-07 -7.80121e-05)
(-9.47038e-05 3.27579e-06 -7.26276e-05)
(-0.000143739 6.16901e-06 -6.42198e-05)
(-0.000205303 1.13985e-05 -5.22932e-05)
(0.000162962 -8.57653e-06 -6.86458e-05)
(0.000105762 -1.39865e-05 -7.60712e-05)
(6.51628e-05 -1.62323e-05 -8.03195e-05)
(3.14665e-05 -1.62339e-05 -8.25204e-05)
(2.01815e-06 -1.48224e-05 -8.28603e-05)
(-2.46954e-05 -1.34271e-05 -8.14511e-05)
(-5.53012e-05 -1.26823e-05 -7.82731e-05)
(-9.43677e-05 -1.19794e-05 -7.25977e-05)
(-0.000142314 -1.07758e-05 -6.38969e-05)
(-0.000202083 -8.87548e-06 -5.17575e-05)
(0.000156116 -2.26345e-05 -6.71789e-05)
(0.000102697 -2.52005e-05 -7.49065e-05)
(6.41703e-05 -2.69727e-05 -7.9745e-05)
(3.12873e-05 -2.76116e-05 -8.20317e-05)
(3.3737e-06 -2.74424e-05 -8.22933e-05)
(-2.42291e-05 -2.70406e-05 -8.08107e-05)
(-5.57372e-05 -2.70247e-05 -7.74182e-05)
(-9.376e-05 -2.74324e-05 -7.16389e-05)
(-0.000142457 -2.86494e-05 -6.29189e-05)
(-0.000202761 -3.0262e-05 -5.06493e-05)
(0.000155667 -4.29619e-05 -6.5427e-05)
(0.000100596 -4.30533e-05 -7.30231e-05)
(6.24132e-05 -4.45957e-05 -7.76578e-05)
(3.08649e-05 -4.61267e-05 -7.99646e-05)
(2.56845e-06 -4.6998e-05 -8.01729e-05)
(-2.42211e-05 -4.72457e-05 -7.86547e-05)
(-5.54689e-05 -4.77668e-05 -7.53954e-05)
(-9.53421e-05 -4.85115e-05 -6.97198e-05)
(-0.000143666 -4.94869e-05 -6.11036e-05)
(-0.000205297 -5.23116e-05 -4.91244e-05)
(0.000151306 -6.48372e-05 -6.22028e-05)
(9.81544e-05 -6.97481e-05 -6.90749e-05)
(6.03878e-05 -7.38092e-05 -7.3378e-05)
(2.87992e-05 -7.676e-05 -7.5444e-05)
(2.29385e-06 -7.77553e-05 -7.56587e-05)
(-2.49348e-05 -7.83238e-05 -7.4372e-05)
(-5.65472e-05 -7.85451e-05 -7.139e-05)
(-9.3878e-05 -7.81075e-05 -6.61963e-05)
(-0.000142259 -7.64201e-05 -5.83079e-05)
(-0.000203417 -7.2787e-05 -4.70547e-05)
(0.000138066 -9.37823e-05 -5.72879e-05)
(8.92061e-05 -0.000107804 -6.25692e-05)
(5.58494e-05 -0.000117223 -6.59906e-05)
(2.77096e-05 -0.000119524 -6.77593e-05)
(1.37863e-06 -0.000119473 -6.80991e-05)
(-2.51209e-05 -0.000119454 -6.71647e-05)
(-5.53574e-05 -0.000119231 -6.49346e-05)
(-9.20357e-05 -0.000117928 -6.07388e-05)
(-0.000133613 -0.000110734 -5.40554e-05)
(-0.000185234 -9.63601e-05 -4.48518e-05)
(0.000103387 -0.000123351 -5.04168e-05)
(7.51978e-05 -0.000157689 -5.3132e-05)
(5.24952e-05 -0.000173679 -5.50308e-05)
(2.95095e-05 -0.000174013 -5.64562e-05)
(3.50624e-06 -0.000170866 -5.70414e-05)
(-2.52216e-05 -0.000169367 -5.68111e-05)
(-5.65434e-05 -0.000170495 -5.55559e-05)
(-8.63516e-05 -0.000168606 -5.28109e-05)
(-0.00011802 -0.000152764 -4.84957e-05)
(-0.000142299 -0.000117566 -4.21186e-05)
(5.30298e-05 2.03273e-05 -7.3225e-05)
(3.27944e-05 2.36864e-05 -7.7631e-05)
(2.32484e-05 2.65712e-05 -7.69636e-05)
(1.46247e-05 2.75415e-05 -7.43704e-05)
(2.93932e-06 2.60515e-05 -7.15855e-05)
(-1.62658e-05 2.73719e-05 -6.84651e-05)
(-3.17797e-05 3.27064e-05 -6.37411e-05)
(-4.05363e-05 3.79437e-05 -5.68681e-05)
(-5.0364e-05 3.64386e-05 -4.82757e-05)
(-4.74466e-05 2.20691e-05 -3.89213e-05)
(6.07568e-05 -4.27606e-06 -7.26644e-05)
(3.97452e-05 3.55087e-06 -7.75936e-05)
(2.69469e-05 9.66232e-06 -7.75172e-05)
(1.41238e-05 1.16001e-05 -7.6135e-05)
(3.67412e-07 7.51072e-06 -7.41928e-05)
(-1.35609e-05 6.73324e-06 -7.15098e-05)
(-2.57497e-05 1.10997e-05 -6.71822e-05)
(-3.66913e-05 1.46521e-05 -6.02804e-05)
(-5.16381e-05 1.52992e-05 -5.03489e-05)
(-6.47105e-05 1.1643e-05 -3.806e-05)
(6.79561e-05 -9.19341e-06 -6.76514e-05)
(4.73618e-05 -4.28917e-06 -7.38598e-05)
(3.06587e-05 -5.66801e-07 -7.5956e-05)
(1.20217e-05 -1.68326e-06 -7.65365e-05)
(-2.26735e-06 -3.81944e-06 -7.55146e-05)
(-1.22105e-05 -3.33872e-06 -7.2966e-05)
(-2.25095e-05 -6.35752e-07 -6.87269e-05)
(-3.4964e-05 1.9784e-06 -6.16229e-05)
(-5.19866e-05 3.35058e-06 -5.09975e-05)
(-7.12537e-05 3.76202e-06 -3.68923e-05)
(7.08851e-05 -8.65283e-06 -6.22588e-05)
(5.09728e-05 -9.86815e-06 -7.01181e-05)
(3.04374e-05 -1.267e-05 -7.44804e-05)
(1.11916e-05 -1.36308e-05 -7.62125e-05)
(-1.24201e-06 -1.20707e-05 -7.56264e-05)
(-1.03985e-05 -1.02035e-05 -7.32178e-05)
(-2.04877e-05 -7.68318e-06 -6.8823e-05)
(-3.33638e-05 -5.68439e-06 -6.15426e-05)
(-5.14186e-05 -4.47458e-06 -5.06319e-05)
(-7.21736e-05 -2.85426e-06 -3.56771e-05)
(6.77326e-05 -8.37189e-06 -5.86413e-05)
(4.5391e-05 -1.44964e-05 -6.73636e-05)
(2.77674e-05 -1.87749e-05 -7.25678e-05)
(1.29785e-05 -1.87768e-05 -7.49124e-05)
(1.27759e-06 -1.65044e-05 -7.46604e-05)
(-7.88881e-06 -1.41126e-05 -7.22914e-05)
(-1.82976e-05 -1.21545e-05 -6.79296e-05)
(-3.25994e-05 -1.0656e-05 -6.04835e-05)
(-5.07753e-05 -9.76519e-06 -4.93006e-05)
(-7.14017e-05 -8.94952e-06 -3.41846e-05)
(6.33689e-05 -1.65519e-05 -5.66355e-05)
(4.17608e-05 -1.90975e-05 -6.51044e-05)
(2.65716e-05 -2.06033e-05 -7.05108e-05)
(1.35938e-05 -2.05157e-05 -7.29011e-05)
(3.46752e-06 -1.91801e-05 -7.27804e-05)
(-6.08753e-06 -1.75505e-05 -7.05876e-05)
(-1.72093e-05 -1.61545e-05 -6.60921e-05)
(-3.13696e-05 -1.52269e-05 -5.85965e-05)
(-5.03833e-05 -1.49925e-05 -4.75524e-05)
(-7.16521e-05 -1.51782e-05 -3.23355e-05)
(6.30865e-05 -2.51587e-05 -5.52609e-05)
(4.10777e-05 -2.48935e-05 -6.31379e-05)
(2.62197e-05 -2.51547e-05 -6.79441e-05)
(1.43286e-05 -2.52756e-05 -7.01327e-05)
(4.22825e-06 -2.46938e-05 -6.983e-05)
(-4.83845e-06 -2.36977e-05 -6.75285e-05)
(-1.5895e-05 -2.28418e-05 -6.31956e-05)
(-3.11884e-05 -2.21004e-05 -5.58626e-05)
(-5.01899e-05 -2.14712e-05 -4.4896e-05)
(-7.18397e-05 -2.12652e-05 -3.02423e-05)
(5.98935e-05 -3.09075e-05 -5.32818e-05)
(4.03567e-05 -3.32337e-05 -5.98324e-05)
(2.58012e-05 -3.4903e-05 -6.3845e-05)
(1.39953e-05 -3.60334e-05 -6.52632e-05)
(5.07734e-06 -3.58227e-05 -6.45669e-05)
(-4.19264e-06 -3.51453e-05 -6.22496e-05)
(-1.54252e-05 -3.43454e-05 -5.79666e-05)
(-2.93363e-05 -3.30196e-05 -5.1075e-05)
(-4.81196e-05 -3.06183e-05 -4.10665e-05)
(-6.88507e-05 -2.6951e-05 -2.74562e-05)
(5.18619e-05 -3.91216e-05 -5.04325e-05)
(3.59933e-05 -4.70861e-05 -5.45474e-05)
(2.35485e-05 -5.15454e-05 -5.68826e-05)
(1.37635e-05 -5.269e-05 -5.72725e-05)
(5.34392e-06 -5.21421e-05 -5.6114e-05)
(-3.36259e-06 -5.12721e-05 -5.35746e-05)
(-1.37929e-05 -4.99982e-05 -4.97668e-05)
(-2.69345e-05 -4.79251e-05 -4.37487e-05)
(-4.25339e-05 -4.27912e-05 -3.50835e-05)
(-5.80588e-05 -3.35491e-05 -2.42715e-05)
(3.08353e-05 -4.35073e-05 -4.63656e-05)
(2.77668e-05 -6.22871e-05 -4.67848e-05)
(2.14512e-05 -7.07462e-05 -4.65782e-05)
(1.45298e-05 -7.18671e-05 -4.57516e-05)
(7.06688e-06 -7.04877e-05 -4.40265e-05)
(-2.14003e-06 -6.87412e-05 -4.15652e-05)
(-1.24705e-05 -6.6971e-05 -3.81433e-05)
(-2.18767e-05 -6.2429e-05 -3.33747e-05)
(-3.21709e-05 -5.14637e-05 -2.74617e-05)
(-3.40221e-05 -3.03125e-05 -2.05804e-05)
(2.61946e-05 5.56577e-06 -0.000123405)
(3.07233e-05 1.67849e-05 -0.000124051)
(3.32974e-05 2.32682e-05 -0.000122772)
(2.89105e-05 2.30301e-05 -0.000121642)
(1.84253e-05 1.89024e-05 -0.000121317)
(4.12787e-06 1.66983e-05 -0.000120814)
(-4.03575e-06 1.85376e-05 -0.000119501)
(-5.50731e-06 2.04353e-05 -0.000117569)
(-1.08374e-05 2.09978e-05 -0.000115158)
(-1.058e-05 1.54359e-05 -0.000113164)
(3.82097e-05 1.12977e-05 -0.000120695)
(4.01414e-05 2.04219e-05 -0.000121782)
(3.43201e-05 2.19752e-05 -0.000121565)
(2.40789e-05 1.75296e-05 -0.000121409)
(1.30984e-05 1.05315e-05 -0.000121097)
(3.88681e-06 8.55341e-06 -0.000120392)
(-1.30597e-06 1.04374e-05 -0.000119059)
(-3.73734e-06 1.19714e-05 -0.000116965)
(-9.59627e-06 1.2618e-05 -0.000113998)
(-1.44233e-05 1.37292e-05 -0.000110394)
(4.33623e-05 1.61829e-05 -0.000114675)
(4.1719e-05 1.68987e-05 -0.000117605)
(3.06474e-05 1.3106e-05 -0.000119412)
(1.73933e-05 7.35621e-06 -0.000120317)
(9.25902e-06 3.51808e-06 -0.000119962)
(4.35911e-06 3.30253e-06 -0.000118952)
(3.3607e-07 4.89328e-06 -0.0001177)
(-2.46741e-06 6.28735e-06 -0.000115589)
(-7.95402e-06 7.0228e-06 -0.000112199)
(-1.26252e-05 9.16236e-06 -0.000107821)