/*--------------------------------*- C++ -*----------------------------------*\
| =========                 |                                                 |
| \\      /  F ield         | OpenFOAM: The Open Source CFD Toolbox           |
|  \\    /   O peration     | Version:  2406                                  |
|   \\  /    A nd           | Website:  www.openfoam.com                      |
|    \\/     M anipulation  |                                                 |
\*---------------------------------------------------------------------------*/
FoamFile
{
    version     2.0;
    format      ascii;
    arch        "LSB;label=32;scalar=64";
    class       volScalarField;
    location    "200";
    object      nuTilda;
}
// * * * * * * * * * * * * * * * * * * * * * * * * * * * * * * * * * * * * * //

dimensions      [0 2 -1 0 0 0 0];

internalField   nonuniform List<scalar> 
25000
(
3.96613e-05
3.97394e-05
3.97881e-05
3.98122e-05
3.98228e-05
3.98228e-05
3.98122e-05
3.97884e-05
3.97433e-05
3.96613e-05
3.97433e-05
3.98127e-05
3.98519e-05
3.98735e-05
3.9884e-05
3.9884e-05
3.98738e-05
3.98615e-05
3.98128e-05
3.97394e-05
3.97884e-05
3.98615e-05
3.98942e-05
3.99085e-05
3.99183e-05
3.99183e-05
3.99097e-05
3.98942e-05
3.98519e-05
3.97881e-05
3.98122e-05
3.98737e-05
3.99097e-05
3.99299e-05
3.99382e-05
3.9939e-05
3.99299e-05
3.99085e-05
3.98735e-05
3.98122e-05
3.98228e-05
3.9884e-05
3.99183e-05
3.9939e-05
3.99515e-05
3.99515e-05
3.99382e-05
3.99183e-05
3.9884e-05
3.98228e-05
3.98228e-05
3.9884e-05
3.99183e-05
3.99382e-05
3.99515e-05
3.99515e-05
3.99382e-05
3.99183e-05
3.9884e-05
3.98228e-05
3.98122e-05
3.98735e-05
3.99085e-05
3.99299e-05
3.99391e-05
3.99391e-05
3.99299e-05
3.99085e-05
3.98735e-05
3.98122e-05
3.97881e-05
3.98519e-05
3.98942e-05
3.99097e-05
3.99183e-05
3.99183e-05
3.99097e-05
3.98942e-05
3.98519e-05
3.97881e-05
3.97394e-05
3.98128e-05
3.98615e-05
3.98738e-05
3.9884e-05
3.9884e-05
3.98738e-05
3.98615e-05
3.98128e-05
3.97394e-05
3.96613e-05
3.97433e-05
3.97884e-05
3.98122e-05
3.98228e-05
3.98228e-05
3.98122e-05
3.97884e-05
3.97433e-05
3.96613e-05
3.89621e-05
3.92102e-05
3.93581e-05
3.9433e-05
3.94656e-05
3.94656e-05
3.9433e-05
3.93596e-05
3.92202e-05
3.89621e-05
3.92202e-05
3.94356e-05
3.95545e-05
3.96198e-05
3.96512e-05
3.96512e-05
3.96213e-05
3.95797e-05
3.94357e-05
3.92103e-05
3.93596e-05
3.95797e-05
3.96807e-05
3.97257e-05
3.97546e-05
3.97549e-05
3.97292e-05
3.96807e-05
3.95545e-05
3.93581e-05
3.94329e-05
3.96212e-05
3.97292e-05
3.97893e-05
3.9815e-05
3.98171e-05
3.97893e-05
3.97257e-05
3.96198e-05
3.9433e-05
3.94656e-05
3.96512e-05
3.97549e-05
3.98171e-05
3.98537e-05
3.98537e-05
3.98149e-05
3.97546e-05
3.96512e-05
3.94656e-05
3.94656e-05
3.96512e-05
3.97546e-05
3.9815e-05
3.98537e-05
3.98537e-05
3.98149e-05
3.97546e-05
3.96512e-05
3.94656e-05
3.9433e-05
3.96198e-05
3.97257e-05
3.97893e-05
3.98172e-05
3.98172e-05
3.97893e-05
3.97257e-05
3.96198e-05
3.9433e-05
3.93581e-05
3.95545e-05
3.96807e-05
3.97292e-05
3.97549e-05
3.97549e-05
3.97292e-05
3.96807e-05
3.95545e-05
3.93581e-05
3.92103e-05
3.94357e-05
3.95797e-05
3.96213e-05
3.96512e-05
3.96512e-05
3.96213e-05
3.95797e-05
3.94357e-05
3.92103e-05
3.89621e-05
3.92202e-05
3.93596e-05
3.9433e-05
3.94656e-05
3.94656e-05
3.9433e-05
3.93596e-05
3.92202e-05
3.89621e-05
3.82541e-05
3.86788e-05
3.89262e-05
3.90532e-05
3.91084e-05
3.91084e-05
3.90533e-05
3.89294e-05
3.86933e-05
3.82541e-05
3.86933e-05
3.90586e-05
3.92579e-05
3.93667e-05
3.94188e-05
3.94189e-05
3.93699e-05
3.92954e-05
3.90587e-05
3.86788e-05
3.89294e-05
3.92954e-05
3.94666e-05
3.9544e-05
3.95915e-05
3.9592e-05
3.95494e-05
3.94666e-05
3.92579e-05
3.89262e-05
3.90532e-05
3.93699e-05
3.95494e-05
3.96489e-05
3.96922e-05
3.96954e-05
3.96489e-05
3.9544e-05
3.93667e-05
3.90532e-05
3.91084e-05
3.94189e-05
3.9592e-05
3.96954e-05
3.97553e-05
3.97553e-05
3.96921e-05
3.95915e-05
3.94188e-05
3.91084e-05
3.91084e-05
3.94188e-05
3.95915e-05
3.96922e-05
3.97554e-05
3.97554e-05
3.96921e-05
3.95915e-05
3.94188e-05
3.91084e-05
3.90532e-05
3.93667e-05
3.9544e-05
3.96489e-05
3.96956e-05
3.96956e-05
3.96489e-05
3.9544e-05
3.93667e-05
3.90532e-05
3.89262e-05
3.92579e-05
3.94666e-05
3.95494e-05
3.9592e-05
3.9592e-05
3.95494e-05
3.94666e-05
3.92579e-05
3.89262e-05
3.86788e-05
3.90587e-05
3.92954e-05
3.93699e-05
3.94189e-05
3.94189e-05
3.93699e-05
3.92954e-05
3.90587e-05
3.86788e-05
3.82541e-05
3.86933e-05
3.89294e-05
3.90533e-05
3.91084e-05
3.91084e-05
3.90533e-05
3.89294e-05
3.86933e-05
3.82541e-05
3.7551e-05
3.81492e-05
3.84953e-05
3.86748e-05
3.87529e-05
3.87529e-05
3.86751e-05
3.85006e-05
3.81674e-05
3.7551e-05
3.81673e-05
3.8683e-05
3.89627e-05
3.91148e-05
3.91873e-05
3.91876e-05
3.912e-05
3.90102e-05
3.86832e-05
3.81493e-05
3.85006e-05
3.90101e-05
3.92522e-05
3.93633e-05
3.94289e-05
3.94298e-05
3.93704e-05
3.92523e-05
3.89628e-05
3.84954e-05
3.8675e-05
3.912e-05
3.93704e-05
3.95088e-05
3.95699e-05
3.95739e-05
3.95089e-05
3.93634e-05
3.91149e-05
3.86748e-05
3.87529e-05
3.91875e-05
3.94298e-05
3.95739e-05
3.96564e-05
3.96564e-05
3.95697e-05
3.94289e-05
3.91873e-05
3.87529e-05
3.87529e-05
3.91873e-05
3.9429e-05
3.957e-05
3.96565e-05
3.96565e-05
3.95697e-05
3.94289e-05
3.91873e-05
3.87529e-05
3.86748e-05
3.91149e-05
3.93634e-05
3.95089e-05
3.95743e-05
3.95743e-05
3.95089e-05
3.93634e-05
3.91149e-05
3.86748e-05
3.84953e-05
3.89628e-05
3.92523e-05
3.93704e-05
3.94298e-05
3.94298e-05
3.93704e-05
3.92523e-05
3.89628e-05
3.84954e-05
3.81493e-05
3.86832e-05
3.90102e-05
3.91201e-05
3.91876e-05
3.91876e-05
3.91201e-05
3.90102e-05
3.86832e-05
3.81493e-05
3.7551e-05
3.81674e-05
3.85006e-05
3.86751e-05
3.87529e-05
3.87529e-05
3.86751e-05
3.85006e-05
3.81674e-05
3.7551e-05
3.68621e-05
3.76246e-05
3.80675e-05
3.82991e-05
3.83999e-05
3.84e-05
3.82998e-05
3.8075e-05
3.76457e-05
3.68623e-05
3.76456e-05
3.83097e-05
3.86692e-05
3.88642e-05
3.89568e-05
3.89573e-05
3.88715e-05
3.87248e-05
3.83099e-05
3.76247e-05
3.80749e-05
3.87247e-05
3.90378e-05
3.91835e-05
3.92669e-05
3.9268e-05
3.91921e-05
3.90379e-05
3.86693e-05
3.80676e-05
3.82997e-05
3.88715e-05
3.9192e-05
3.93689e-05
3.94478e-05
3.94525e-05
3.93689e-05
3.91835e-05
3.88643e-05
3.82992e-05
3.84e-05
3.89572e-05
3.9268e-05
3.94525e-05
3.95568e-05
3.95568e-05
3.94474e-05
3.92668e-05
3.89568e-05
3.84e-05
3.84e-05
3.89568e-05
3.92669e-05
3.94478e-05
3.95569e-05
3.95568e-05
3.94474e-05
3.92668e-05
3.89568e-05
3.84e-05
3.82992e-05
3.88643e-05
3.91835e-05
3.9369e-05
3.9453e-05
3.9453e-05
3.9369e-05
3.91835e-05
3.88643e-05
3.82992e-05
3.80676e-05
3.86693e-05
3.90379e-05
3.91921e-05
3.92682e-05
3.92682e-05
3.91921e-05
3.90379e-05
3.86693e-05
3.80676e-05
3.76247e-05
3.83099e-05
3.87248e-05
3.88715e-05
3.89573e-05
3.89573e-05
3.88715e-05
3.87248e-05
3.83099e-05
3.76247e-05
3.68623e-05
3.76457e-05
3.8075e-05
3.82998e-05
3.84e-05
3.84e-05
3.82998e-05
3.8075e-05
3.76457e-05
3.68623e-05
3.61889e-05
3.71052e-05
3.76429e-05
3.79262e-05
3.80497e-05
3.80498e-05
3.79273e-05
3.76526e-05
3.71289e-05
3.61892e-05
3.71287e-05
3.79381e-05
3.8377e-05
3.86147e-05
3.8727e-05
3.87278e-05
3.8624e-05
3.84392e-05
3.79384e-05
3.71055e-05
3.76525e-05
3.84391e-05
3.88232e-05
3.90041e-05
3.9105e-05
3.91066e-05
3.9014e-05
3.88234e-05
3.83772e-05
3.76431e-05
3.79272e-05
3.8624e-05
3.9014e-05
3.9229e-05
3.93256e-05
3.93309e-05
3.9229e-05
3.90042e-05
3.86148e-05
3.79263e-05
3.80498e-05
3.87278e-05
3.91066e-05
3.93308e-05
3.94564e-05
3.94564e-05
3.93251e-05
3.91049e-05
3.8727e-05
3.80497e-05
3.80497e-05
3.87271e-05
3.91051e-05
3.93257e-05
3.94565e-05
3.94564e-05
3.93251e-05
3.91049e-05
3.8727e-05
3.80497e-05
3.79263e-05
3.86148e-05
3.90042e-05
3.92291e-05
3.93315e-05
3.93315e-05
3.92291e-05
3.90042e-05
3.86148e-05
3.79263e-05
3.7643e-05
3.83772e-05
3.88234e-05
3.90141e-05
3.91068e-05
3.91068e-05
3.90141e-05
3.88234e-05
3.83772e-05
3.76431e-05
3.71054e-05
3.79384e-05
3.84392e-05
3.86241e-05
3.87279e-05
3.87279e-05
3.86241e-05
3.84392e-05
3.79384e-05
3.71055e-05
3.61891e-05
3.71289e-05
3.76526e-05
3.79273e-05
3.80498e-05
3.80498e-05
3.79273e-05
3.76526e-05
3.71289e-05
3.61892e-05
3.55277e-05
3.65894e-05
3.72197e-05
3.75544e-05
3.77006e-05
3.77007e-05
3.7556e-05
3.72316e-05
3.66151e-05
3.5528e-05
3.66149e-05
3.75671e-05
3.80851e-05
3.83655e-05
3.84975e-05
3.84986e-05
3.83768e-05
3.81528e-05
3.75674e-05
3.65897e-05
3.72315e-05
3.81526e-05
3.86079e-05
3.88248e-05
3.89432e-05
3.89451e-05
3.88359e-05
3.86081e-05
3.80853e-05
3.72199e-05
3.7556e-05
3.83768e-05
3.88359e-05
3.90888e-05
3.92032e-05
3.92089e-05
3.90888e-05
3.88249e-05
3.83657e-05
3.75545e-05
3.77007e-05
3.84986e-05
3.89451e-05
3.92088e-05
3.93551e-05
3.9355e-05
3.92025e-05
3.8943e-05
3.84975e-05
3.77006e-05
3.77006e-05
3.84976e-05
3.89432e-05
3.92033e-05
3.93552e-05
3.93551e-05
3.92025e-05
3.8943e-05
3.84975e-05
3.77007e-05
3.75545e-05
3.83656e-05
3.88249e-05
3.90889e-05
3.92097e-05
3.92097e-05
3.90889e-05
3.88249e-05
3.83657e-05
3.75546e-05
3.72199e-05
3.80853e-05
3.86081e-05
3.8836e-05
3.89454e-05
3.89454e-05
3.8836e-05
3.86081e-05
3.80853e-05
3.72199e-05
3.65897e-05
3.75674e-05
3.81528e-05
3.83769e-05
3.84988e-05
3.84988e-05
3.83769e-05
3.81528e-05
3.75674e-05
3.65897e-05
3.5528e-05
3.66151e-05
3.72316e-05
3.75561e-05
3.77008e-05
3.77008e-05
3.7556e-05
3.72316e-05
3.66151e-05
3.5528e-05
3.48785e-05
3.60768e-05
3.6797e-05
3.71826e-05
3.73515e-05
3.73517e-05
3.71847e-05
3.68109e-05
3.6104e-05
3.48788e-05
3.61038e-05
3.71958e-05
3.77928e-05
3.81161e-05
3.82677e-05
3.82692e-05
3.81293e-05
3.78648e-05
3.7196e-05
3.60771e-05
3.68107e-05
3.78647e-05
3.83917e-05
3.86453e-05
3.8781e-05
3.87833e-05
3.86574e-05
3.83918e-05
3.77931e-05
3.67972e-05
3.71847e-05
3.81292e-05
3.86574e-05
3.89482e-05
3.90804e-05
3.90864e-05
3.89482e-05
3.86453e-05
3.81162e-05
3.71827e-05
3.73517e-05
3.82692e-05
3.87833e-05
3.90864e-05
3.92529e-05
3.92529e-05
3.90796e-05
3.87807e-05
3.82677e-05
3.73515e-05
3.73515e-05
3.82678e-05
3.87811e-05
3.90805e-05
3.9253e-05
3.9253e-05
3.90796e-05
3.87807e-05
3.82677e-05
3.73516e-05
3.71827e-05
3.81162e-05
3.86454e-05
3.89484e-05
3.90874e-05
3.90874e-05
3.89483e-05
3.86454e-05
3.81162e-05
3.71827e-05
3.67972e-05
3.77931e-05
3.83918e-05
3.86575e-05
3.87837e-05
3.87837e-05
3.86575e-05
3.83918e-05
3.77931e-05
3.67972e-05
3.6077e-05
3.71961e-05
3.78649e-05
3.81294e-05
3.82694e-05
3.82694e-05
3.81294e-05
3.78649e-05
3.71961e-05
3.60771e-05
3.48788e-05
3.6104e-05
3.68109e-05
3.71848e-05
3.73518e-05
3.73518e-05
3.71848e-05
3.68109e-05
3.6104e-05
3.48788e-05
3.42464e-05
3.55689e-05
3.63752e-05
3.68108e-05
3.70023e-05
3.70026e-05
3.68136e-05
3.6391e-05
3.55974e-05
3.42467e-05
3.55972e-05
3.68243e-05
3.75001e-05
3.78663e-05
3.80375e-05
3.80393e-05
3.78813e-05
3.75756e-05
3.68246e-05
3.55692e-05
3.63908e-05
3.75753e-05
3.81743e-05
3.84653e-05
3.86185e-05
3.86212e-05
3.84785e-05
3.81745e-05
3.75003e-05
3.63754e-05
3.68135e-05
3.78812e-05
3.84784e-05
3.88072e-05
3.89572e-05
3.89635e-05
3.88072e-05
3.84654e-05
3.78664e-05
3.68109e-05
3.70026e-05
3.80393e-05
3.86212e-05
3.89635e-05
3.91499e-05
3.91499e-05
3.89562e-05
3.86181e-05
3.80374e-05
3.70024e-05
3.70024e-05
3.80376e-05
3.86186e-05
3.89573e-05
3.91501e-05
3.915e-05
3.89562e-05
3.86181e-05
3.80374e-05
3.70024e-05
3.68109e-05
3.78664e-05
3.84655e-05
3.88074e-05
3.89646e-05
3.89646e-05
3.88073e-05
3.84654e-05
3.78664e-05
3.6811e-05
3.63754e-05
3.75003e-05
3.81745e-05
3.84786e-05
3.86217e-05
3.86217e-05
3.84786e-05
3.81746e-05
3.75003e-05
3.63754e-05
3.55692e-05
3.68246e-05
3.75756e-05
3.78814e-05
3.80396e-05
3.80396e-05
3.78814e-05
3.75756e-05
3.68247e-05
3.55692e-05
3.42467e-05
3.55974e-05
3.6391e-05
3.68136e-05
3.70028e-05
3.70028e-05
3.68136e-05
3.6391e-05
3.55974e-05
3.42467e-05
3.36412e-05
3.50689e-05
3.59558e-05
3.644e-05
3.66537e-05
3.66542e-05
3.64434e-05
3.59733e-05
3.50984e-05
3.36414e-05
3.50982e-05
3.64536e-05
3.7207e-05
3.76162e-05
3.7807e-05
3.78092e-05
3.7633e-05
3.72853e-05
3.64539e-05
3.50692e-05
3.59732e-05
3.72851e-05
3.79562e-05
3.82851e-05
3.84557e-05
3.84587e-05
3.82991e-05
3.79564e-05
3.72073e-05
3.59561e-05
3.64433e-05
3.76329e-05
3.8299e-05
3.86658e-05
3.88336e-05
3.88401e-05
3.86657e-05
3.82852e-05
3.76163e-05
3.64401e-05
3.66542e-05
3.78092e-05
3.84587e-05
3.88401e-05
3.90462e-05
3.90461e-05
3.88324e-05
3.84552e-05
3.78068e-05
3.66538e-05
3.66538e-05
3.78071e-05
3.84558e-05
3.88337e-05
3.90464e-05
3.90463e-05
3.88325e-05
3.84552e-05
3.78068e-05
3.66538e-05
3.64401e-05
3.76164e-05
3.82852e-05
3.86661e-05
3.88414e-05
3.88414e-05
3.86659e-05
3.82852e-05
3.76164e-05
3.64402e-05
3.5956e-05
3.72073e-05
3.79564e-05
3.82993e-05
3.84594e-05
3.84594e-05
3.82993e-05
3.79564e-05
3.72073e-05
3.59561e-05
3.50691e-05
3.6454e-05
3.72854e-05
3.76331e-05
3.78096e-05
3.78096e-05
3.76331e-05
3.72854e-05
3.6454e-05
3.50692e-05
3.36414e-05
3.50984e-05
3.59734e-05
3.64435e-05
3.66543e-05
3.66543e-05
3.64435e-05
3.59734e-05
3.50984e-05
3.36415e-05
3.30761e-05
3.45808e-05
3.55408e-05
3.60714e-05
3.63067e-05
3.63073e-05
3.60754e-05
3.55599e-05
3.46111e-05
3.30762e-05
3.46109e-05
3.60847e-05
3.69142e-05
3.7366e-05
3.75763e-05
3.75789e-05
3.73844e-05
3.69947e-05
3.60851e-05
3.4581e-05
3.55598e-05
3.69945e-05
3.77374e-05
3.81045e-05
3.82926e-05
3.8296e-05
3.81194e-05
3.77376e-05
3.69145e-05
3.55411e-05
3.60754e-05
3.73843e-05
3.81193e-05
3.8524e-05
3.87096e-05
3.87164e-05
3.8524e-05
3.81046e-05
3.73662e-05
3.60715e-05
3.63073e-05
3.75789e-05
3.8296e-05
3.87163e-05
3.89418e-05
3.89417e-05
3.87083e-05
3.82921e-05
3.75761e-05
3.63068e-05
3.63068e-05
3.75764e-05
3.82927e-05
3.87097e-05
3.89421e-05
3.89419e-05
3.87084e-05
3.82921e-05
3.75761e-05
3.63068e-05
3.60715e-05
3.73662e-05
3.81047e-05
3.85244e-05
3.87178e-05
3.87178e-05
3.85242e-05
3.81047e-05
3.73662e-05
3.60716e-05
3.55411e-05
3.69145e-05
3.77377e-05
3.81196e-05
3.82968e-05
3.82968e-05
3.81196e-05
3.77377e-05
3.69145e-05
3.55411e-05
3.4581e-05
3.60851e-05
3.69948e-05
3.73845e-05
3.75794e-05
3.75794e-05
3.73845e-05
3.69948e-05
3.60851e-05
3.45811e-05
3.30763e-05
3.46111e-05
3.556e-05
3.60756e-05
3.63075e-05
3.63075e-05
3.60756e-05
3.556e-05
3.46111e-05
3.30763e-05
3.25743e-05
3.41106e-05
3.51327e-05
3.57065e-05
3.59625e-05
3.59632e-05
3.57112e-05
3.51533e-05
3.41415e-05
3.25744e-05
3.41413e-05
3.57191e-05
3.6622e-05
3.71161e-05
3.73457e-05
3.73487e-05
3.71359e-05
3.67044e-05
3.57195e-05
3.41108e-05
3.51531e-05
3.67041e-05
3.75182e-05
3.79238e-05
3.81294e-05
3.81331e-05
3.79395e-05
3.75185e-05
3.66223e-05
3.5133e-05
3.57112e-05
3.71358e-05
3.79393e-05
3.8382e-05
3.85853e-05
3.85922e-05
3.83819e-05
3.79239e-05
3.71162e-05
3.57067e-05
3.59633e-05
3.73486e-05
3.81331e-05
3.85922e-05
3.88368e-05
3.88366e-05
3.85839e-05
3.81287e-05
3.73454e-05
3.59626e-05
3.59626e-05
3.73458e-05
3.81295e-05
3.85854e-05
3.88371e-05
3.88369e-05
3.8584e-05
3.81287e-05
3.73454e-05
3.59626e-05
3.57067e-05
3.71163e-05
3.7924e-05
3.83824e-05
3.85938e-05
3.85938e-05
3.83822e-05
3.79239e-05
3.71162e-05
3.57067e-05
3.5133e-05
3.66223e-05
3.75185e-05
3.79397e-05
3.8134e-05
3.8134e-05
3.79396e-05
3.75185e-05
3.66224e-05
3.5133e-05
3.41108e-05
3.57195e-05
3.67044e-05
3.7136e-05
3.73492e-05
3.73492e-05
3.7136e-05
3.67044e-05
3.57195e-05
3.41109e-05
3.25744e-05
3.41416e-05
3.51534e-05
3.57114e-05
3.59635e-05
3.59635e-05
3.57114e-05
3.51534e-05
3.41416e-05
3.25744e-05
3.2168e-05
3.36663e-05
3.47345e-05
3.5347e-05
3.56225e-05
3.56233e-05
3.53525e-05
3.47563e-05
3.36978e-05
3.2168e-05
3.36976e-05
3.53585e-05
3.63311e-05
3.68666e-05
3.71154e-05
3.71187e-05
3.68878e-05
3.64149e-05
3.53588e-05
3.36665e-05
3.47562e-05
3.64146e-05
3.72989e-05
3.7743e-05
3.79661e-05
3.79701e-05
3.77593e-05
3.72991e-05
3.63314e-05
3.47348e-05
3.53524e-05
3.68876e-05
3.77592e-05
3.82397e-05
3.84607e-05
3.84677e-05
3.82396e-05
3.7743e-05
3.68667e-05
3.53472e-05
3.56233e-05
3.71186e-05
3.797e-05
3.84677e-05
3.87312e-05
3.8731e-05
3.84592e-05
3.79652e-05
3.71149e-05
3.56224e-05
3.56226e-05
3.71154e-05
3.79661e-05
3.84608e-05
3.87315e-05
3.87313e-05
3.84592e-05
3.79652e-05
3.71149e-05
3.56224e-05
3.53472e-05
3.68668e-05
3.77432e-05
3.82401e-05
3.84695e-05
3.84695e-05
3.82399e-05
3.77431e-05
3.68667e-05
3.53472e-05
3.47348e-05
3.63314e-05
3.72991e-05
3.77595e-05
3.79711e-05
3.79711e-05
3.77595e-05
3.72991e-05
3.63314e-05
3.47348e-05
3.36666e-05
3.53588e-05
3.64149e-05
3.68879e-05
3.71194e-05
3.71194e-05
3.68879e-05
3.64149e-05
3.53588e-05
3.36666e-05
3.2168e-05
3.36978e-05
3.47564e-05
3.53526e-05
3.56236e-05
3.56236e-05
3.53526e-05
3.47564e-05
3.36979e-05
3.2168e-05
3.19181e-05
3.32619e-05
3.43506e-05
3.49952e-05
3.52881e-05
3.52891e-05
3.50013e-05
3.43735e-05
3.32937e-05
3.19179e-05
3.32936e-05
3.50051e-05
3.6042e-05
3.66179e-05
3.68855e-05
3.68891e-05
3.66402e-05
3.6127e-05
3.50055e-05
3.3262e-05
3.43734e-05
3.61267e-05
3.70795e-05
3.75621e-05
3.78026e-05
3.78069e-05
3.7579e-05
3.70797e-05
3.60423e-05
3.43508e-05
3.50012e-05
3.66401e-05
3.75789e-05
3.80972e-05
3.83358e-05
3.83429e-05
3.80971e-05
3.75621e-05
3.6618e-05
3.49953e-05
3.52891e-05
3.68891e-05
3.78069e-05
3.83429e-05
3.8625e-05
3.86248e-05
3.83341e-05
3.78016e-05
3.68849e-05
3.5288e-05
3.52882e-05
3.68855e-05
3.78027e-05
3.83359e-05
3.86253e-05
3.86251e-05
3.83342e-05
3.78016e-05
3.68849e-05
3.5288e-05
3.49954e-05
3.66181e-05
3.75623e-05
3.80977e-05
3.83448e-05
3.83448e-05
3.80974e-05
3.75621e-05
3.6618e-05
3.49954e-05
3.43508e-05
3.60423e-05
3.70798e-05
3.75792e-05
3.78081e-05
3.78081e-05
3.75792e-05
3.70797e-05
3.60424e-05
3.43508e-05
3.3262e-05
3.50055e-05
3.6127e-05
3.66404e-05
3.68899e-05
3.68899e-05
3.66404e-05
3.6127e-05
3.50055e-05
3.3262e-05
3.19179e-05
3.32937e-05
3.43736e-05
3.50014e-05
3.52894e-05
3.52894e-05
3.50014e-05
3.43736e-05
3.32938e-05
3.19179e-05
3.19058e-05
3.29176e-05
3.39871e-05
3.4654e-05
3.49616e-05
3.49627e-05
3.46607e-05
3.40111e-05
3.29497e-05
3.19053e-05
3.29496e-05
3.46625e-05
3.57557e-05
3.63702e-05
3.66562e-05
3.66603e-05
3.63937e-05
3.58415e-05
3.46628e-05
3.29176e-05
3.4011e-05
3.58412e-05
3.68603e-05
3.73811e-05
3.76391e-05
3.76437e-05
3.73986e-05
3.68605e-05
3.5756e-05
3.39873e-05
3.46607e-05
3.63935e-05
3.73985e-05
3.79545e-05
3.82106e-05
3.82178e-05
3.79543e-05
3.73811e-05
3.63703e-05
3.46541e-05
3.49627e-05
3.66602e-05
3.76436e-05
3.82178e-05
3.85182e-05
3.8518e-05
3.82088e-05
3.7638e-05
3.66555e-05
3.49614e-05
3.49616e-05
3.66563e-05
3.76392e-05
3.82107e-05
3.85186e-05
3.85183e-05
3.82089e-05
3.7638e-05
3.66555e-05
3.49614e-05
3.46542e-05
3.63704e-05
3.73813e-05
3.7955e-05
3.82199e-05
3.82198e-05
3.79547e-05
3.73812e-05
3.63703e-05
3.46542e-05
3.39873e-05
3.5756e-05
3.68606e-05
3.73989e-05
3.7645e-05
3.7645e-05
3.73988e-05
3.68605e-05
3.5756e-05
3.39873e-05
3.29176e-05
3.46628e-05
3.58415e-05
3.63938e-05
3.66612e-05
3.66612e-05
3.63938e-05
3.58415e-05
3.46628e-05
3.29176e-05
3.19053e-05
3.29497e-05
3.40112e-05
3.46608e-05
3.49631e-05
3.49631e-05
3.46608e-05
3.40112e-05
3.29497e-05
3.19053e-05
3.22791e-05
3.26677e-05
3.36549e-05
3.4328e-05
3.4646e-05
3.46473e-05
3.43353e-05
3.36798e-05
3.27e-05
3.22781e-05
3.26999e-05
3.43358e-05
3.54732e-05
3.6124e-05
3.64279e-05
3.64323e-05
3.61484e-05
3.55596e-05
3.43361e-05
3.26675e-05
3.36797e-05
3.55594e-05
3.66415e-05
3.72002e-05
3.74756e-05
3.74804e-05
3.72182e-05
3.66417e-05
3.54734e-05
3.3655e-05
3.43353e-05
3.61483e-05
3.72181e-05
3.78116e-05
3.80851e-05
3.80924e-05
3.78114e-05
3.72002e-05
3.61241e-05
3.43281e-05
3.46473e-05
3.64322e-05
3.74803e-05
3.80924e-05
3.8411e-05
3.84107e-05
3.80832e-05
3.74743e-05
3.64271e-05
3.46457e-05
3.4646e-05
3.6428e-05
3.74756e-05
3.80852e-05
3.84114e-05
3.84111e-05
3.80833e-05
3.74743e-05
3.64271e-05
3.46457e-05
3.43281e-05
3.61242e-05
3.72005e-05
3.78121e-05
3.80946e-05
3.80945e-05
3.78118e-05
3.72002e-05
3.61241e-05
3.43281e-05
3.3655e-05
3.54734e-05
3.66418e-05
3.72185e-05
3.74819e-05
3.74819e-05
3.72185e-05
3.66418e-05
3.54734e-05
3.3655e-05
3.26676e-05
3.43361e-05
3.55597e-05
3.61486e-05
3.64333e-05
3.64333e-05
3.61486e-05
3.55597e-05
3.43361e-05
3.26676e-05
3.22781e-05
3.26999e-05
3.36798e-05
3.43355e-05
3.46477e-05
3.46477e-05
3.43354e-05
3.36798e-05
3.27e-05
3.22781e-05
3.31983e-05
3.25655e-05
3.337e-05
3.40246e-05
3.43461e-05
3.43476e-05
3.40325e-05
3.33957e-05
3.25979e-05
3.31967e-05
3.25979e-05
3.40332e-05
3.51962e-05
3.58798e-05
3.62008e-05
3.62055e-05
3.59051e-05
3.52831e-05
3.40335e-05
3.25651e-05
3.33956e-05
3.52829e-05
3.64235e-05
3.70195e-05
3.7312e-05
3.73171e-05
3.70379e-05
3.64237e-05
3.51964e-05
3.337e-05
3.40324e-05
3.5905e-05
3.70378e-05
3.76685e-05
3.79593e-05
3.79667e-05
3.76682e-05
3.70194e-05
3.58798e-05
3.40246e-05
3.43476e-05
3.62054e-05
3.7317e-05
3.79668e-05
3.83033e-05
3.8303e-05
3.79573e-05
3.73106e-05
3.61998e-05
3.43458e-05
3.43462e-05
3.62009e-05
3.73121e-05
3.79595e-05
3.83037e-05
3.83034e-05
3.79574e-05
3.73106e-05
3.61998e-05
3.43458e-05
3.40247e-05
3.588e-05
3.70197e-05
3.7669e-05
3.7969e-05
3.79689e-05
3.76687e-05
3.70195e-05
3.58799e-05
3.40247e-05
3.337e-05
3.51965e-05
3.64238e-05
3.70383e-05
3.73187e-05
3.73187e-05
3.70382e-05
3.64237e-05
3.51964e-05
3.33701e-05
3.25652e-05
3.40335e-05
3.52832e-05
3.59054e-05
3.62066e-05
3.62066e-05
3.59054e-05
3.52832e-05
3.40335e-05
3.25651e-05
3.31966e-05
3.25977e-05
3.33957e-05
3.40326e-05
3.4348e-05
3.4348e-05
3.40326e-05
3.33957e-05
3.25979e-05
3.31966e-05
3.49099e-05
3.26836e-05
3.31573e-05
3.37547e-05
3.40693e-05
3.40709e-05
3.37632e-05
3.31837e-05
3.27159e-05
3.49073e-05
3.2716e-05
3.37683e-05
3.49274e-05
3.56384e-05
3.59753e-05
3.59803e-05
3.56645e-05
3.50147e-05
3.37684e-05
3.26827e-05
3.31837e-05
3.50145e-05
3.62065e-05
3.68389e-05
3.71485e-05
3.71538e-05
3.68577e-05
3.62067e-05
3.49276e-05
3.31572e-05
3.37632e-05
3.56644e-05
3.68576e-05
3.75252e-05
3.78333e-05
3.78407e-05
3.75249e-05
3.68388e-05
3.56384e-05
3.37547e-05
3.4071e-05
3.59803e-05
3.71538e-05
3.78408e-05
3.81951e-05
3.81948e-05
3.78312e-05
3.7147e-05
3.59742e-05
3.40689e-05
3.40694e-05
3.59754e-05
3.71486e-05
3.78335e-05
3.81956e-05
3.81952e-05
3.78313e-05
3.7147e-05
3.59742e-05
3.4069e-05
3.37548e-05
3.56386e-05
3.68392e-05
3.75258e-05
3.78432e-05
3.78431e-05
3.75254e-05
3.68389e-05
3.56385e-05
3.37548e-05
3.31573e-05
3.49276e-05
3.62069e-05
3.68581e-05
3.71556e-05
3.71556e-05
3.68581e-05
3.62068e-05
3.49276e-05
3.31574e-05
3.26829e-05
3.37685e-05
3.50148e-05
3.56648e-05
3.59816e-05
3.59816e-05
3.56648e-05
3.50148e-05
3.37685e-05
3.26828e-05
3.49071e-05
3.27156e-05
3.31838e-05
3.37633e-05
3.40715e-05
3.40715e-05
3.37633e-05
3.31837e-05
3.27158e-05
3.49071e-05
3.75579e-05
3.31298e-05
3.30546e-05
3.35353e-05
3.38266e-05
3.38284e-05
3.35442e-05
3.30816e-05
3.31619e-05
3.75543e-05
3.31622e-05
3.35603e-05
3.46709e-05
3.5401e-05
3.57521e-05
3.57573e-05
3.54278e-05
3.47584e-05
3.35604e-05
3.31283e-05
3.30816e-05
3.47582e-05
3.59913e-05
3.66587e-05
3.69851e-05
3.69906e-05
3.66778e-05
3.59915e-05
3.46711e-05
3.30544e-05
3.35443e-05
3.54277e-05
3.66778e-05
3.73818e-05
3.7707e-05
3.77145e-05
3.73815e-05
3.66585e-05
3.5401e-05
3.35352e-05
3.38284e-05
3.57573e-05
3.69906e-05
3.77146e-05
3.80865e-05
3.80862e-05
3.77048e-05
3.69834e-05
3.57509e-05
3.38262e-05
3.38267e-05
3.57522e-05
3.69852e-05
3.77072e-05
3.8087e-05
3.80866e-05
3.77049e-05
3.69834e-05
3.57509e-05
3.38262e-05
3.35354e-05
3.54013e-05
3.6659e-05
3.73825e-05
3.77171e-05
3.7717e-05
3.7382e-05
3.66586e-05
3.5401e-05
3.35353e-05
3.30545e-05
3.46711e-05
3.59917e-05
3.66783e-05
3.69926e-05
3.69926e-05
3.66783e-05
3.59916e-05
3.46711e-05
3.30546e-05
3.31286e-05
3.35605e-05
3.47585e-05
3.54282e-05
3.57588e-05
3.57588e-05
3.54282e-05
3.47585e-05
3.35605e-05
3.31284e-05
3.75539e-05
3.31615e-05
3.30816e-05
3.35444e-05
3.3829e-05
3.3829e-05
3.35443e-05
3.30815e-05
3.31617e-05
3.7554e-05
4.14523e-05
3.40304e-05
3.31155e-05
3.3393e-05
3.36363e-05
3.36383e-05
3.34025e-05
3.31429e-05
3.4062e-05
4.14468e-05
3.40626e-05
3.344e-05
3.4433e-05
3.51695e-05
3.5532e-05
3.55374e-05
3.51969e-05
3.45207e-05
3.34399e-05
3.40279e-05
3.3143e-05
3.45206e-05
3.57787e-05
3.6479e-05
3.68219e-05
3.68275e-05
3.64984e-05
3.57789e-05
3.44332e-05
3.3115e-05
3.34025e-05
3.51969e-05
3.64984e-05
3.72384e-05
3.75806e-05
3.75881e-05
3.7238e-05
3.64788e-05
3.51695e-05
3.33929e-05
3.36384e-05
3.55375e-05
3.68275e-05
3.75882e-05
3.79775e-05
3.79771e-05
3.75782e-05
3.682e-05
3.55306e-05
3.36358e-05
3.36364e-05
3.55321e-05
3.6822e-05
3.75808e-05
3.7978e-05
3.79776e-05
3.75784e-05
3.68201e-05
3.55306e-05
3.36359e-05
3.33931e-05
3.51698e-05
3.64793e-05
3.7239e-05
3.75907e-05
3.75906e-05
3.72386e-05
3.64789e-05
3.51695e-05
3.33931e-05
3.31151e-05
3.44333e-05
3.57791e-05
3.6499e-05
3.68297e-05
3.68296e-05
3.64989e-05
3.5779e-05
3.44333e-05
3.31153e-05
3.40283e-05
3.344e-05
3.45209e-05
3.51974e-05
3.55391e-05
3.55391e-05
3.51973e-05
3.45209e-05
3.34401e-05
3.40281e-05
4.14461e-05
3.40614e-05
3.31429e-05
3.34027e-05
3.3639e-05
3.3639e-05
3.34026e-05
3.31426e-05
3.40617e-05
4.14464e-05
4.65926e-05
3.55628e-05
3.34227e-05
3.33648e-05
3.35235e-05
3.35256e-05
3.33747e-05
3.34504e-05
3.55936e-05
4.65849e-05
3.5595e-05
3.34496e-05
3.42237e-05
3.4947e-05
3.53166e-05
3.53223e-05
3.49749e-05
3.43115e-05
3.34494e-05
3.5559e-05
3.34506e-05
3.43113e-05
3.55699e-05
3.63e-05
3.66589e-05
3.66647e-05
3.63197e-05
3.55701e-05
3.42238e-05
3.34217e-05
3.33747e-05
3.49749e-05
3.63197e-05
3.70949e-05
3.74539e-05
3.74614e-05
3.70945e-05
3.62998e-05
3.49469e-05
3.33645e-05
3.35257e-05
3.53223e-05
3.66647e-05
3.74615e-05
3.78681e-05
3.78677e-05
3.74514e-05
3.66569e-05
3.53151e-05
3.35229e-05
3.35236e-05
3.53167e-05
3.6659e-05
3.74541e-05
3.78686e-05
3.78682e-05
3.74516e-05
3.66569e-05
3.53151e-05
3.3523e-05
3.33647e-05
3.49472e-05
3.63003e-05
3.70956e-05
3.74642e-05
3.74641e-05
3.7095e-05
3.62999e-05
3.49469e-05
3.33647e-05
3.3422e-05
3.42239e-05
3.55703e-05
3.63204e-05
3.6667e-05
3.66669e-05
3.63203e-05
3.55702e-05
3.42239e-05
3.34222e-05
3.55596e-05
3.34494e-05
3.43116e-05
3.49754e-05
3.53241e-05
3.53241e-05
3.49754e-05
3.43116e-05
3.34495e-05
3.55592e-05
4.65845e-05
3.55928e-05
3.34502e-05
3.33748e-05
3.35264e-05
3.35263e-05
3.33746e-05
3.34498e-05
3.55931e-05
4.65844e-05
5.26712e-05
3.78889e-05
3.40662e-05
3.3505e-05
3.3526e-05
3.35283e-05
3.35153e-05
3.40937e-05
3.7919e-05
5.2662e-05
3.79213e-05
3.36546e-05
3.40586e-05
3.47381e-05
3.51083e-05
3.51143e-05
3.47666e-05
3.41464e-05
3.36541e-05
3.78835e-05
3.40942e-05
3.41463e-05
3.53672e-05
3.61222e-05
3.64962e-05
3.65022e-05
3.61422e-05
3.53673e-05
3.40587e-05
3.40645e-05
3.35154e-05
3.47665e-05
3.61422e-05
3.69514e-05
3.7327e-05
3.73346e-05
3.69509e-05
3.61219e-05
3.47379e-05
3.35044e-05
3.35283e-05
3.51143e-05
3.65022e-05
3.73347e-05
3.77583e-05
3.77579e-05
3.73245e-05
3.64941e-05
3.51067e-05
3.35252e-05
3.3526e-05
3.51084e-05
3.64963e-05
3.73272e-05
3.77589e-05
3.77584e-05
3.73246e-05
3.64941e-05
3.51067e-05
3.35253e-05
3.35047e-05
3.47382e-05
3.61225e-05
3.69521e-05
3.73374e-05
3.73373e-05
3.69515e-05
3.6122e-05
3.4738e-05
3.35048e-05
3.4065e-05
3.40587e-05
3.53675e-05
3.61428e-05
3.65046e-05
3.65046e-05
3.61428e-05
3.53674e-05
3.40588e-05
3.40652e-05
3.78847e-05
3.3654e-05
3.41465e-05
3.4767e-05
3.51162e-05
3.51162e-05
3.4767e-05
3.41465e-05
3.36541e-05
3.78839e-05
5.26627e-05
3.79184e-05
3.40935e-05
3.35154e-05
3.3529e-05
3.3529e-05
3.35151e-05
3.4093e-05
3.79183e-05
5.26617e-05
5.94239e-05
4.09906e-05
3.51688e-05
3.38868e-05
3.37006e-05
3.3703e-05
3.38974e-05
3.51963e-05
4.10214e-05
5.94152e-05
4.10241e-05
3.41121e-05
3.39577e-05
3.45503e-05
3.49113e-05
3.49174e-05
3.45793e-05
3.40455e-05
3.41112e-05
4.09845e-05
3.51971e-05
3.40454e-05
3.51734e-05
3.59462e-05
3.63341e-05
3.63402e-05
3.59663e-05
3.51734e-05
3.39575e-05
3.51667e-05
3.38977e-05
3.45792e-05
3.59663e-05
3.6808e-05
3.72e-05
3.72075e-05
3.68075e-05
3.59458e-05
3.455e-05
3.38861e-05
3.37031e-05
3.49174e-05
3.63403e-05
3.72077e-05
3.76482e-05
3.76477e-05
3.71973e-05
3.63318e-05
3.49094e-05
3.36997e-05
3.37006e-05
3.49113e-05
3.63342e-05
3.72002e-05
3.76488e-05
3.76483e-05
3.71975e-05
3.63318e-05
3.49094e-05
3.36998e-05
3.38864e-05
3.45504e-05
3.59464e-05
3.68087e-05
3.72105e-05
3.72104e-05
3.68081e-05
3.59459e-05
3.455e-05
3.38866e-05
3.51673e-05
3.39576e-05
3.51736e-05
3.5967e-05
3.63428e-05
3.63427e-05
3.59669e-05
3.51736e-05
3.39576e-05
3.51678e-05
4.0986e-05
3.41112e-05
3.40455e-05
3.45797e-05
3.49194e-05
3.49194e-05
3.45797e-05
3.40455e-05
3.41112e-05
4.09855e-05
5.94162e-05
4.10209e-05
3.51962e-05
3.38976e-05
3.37039e-05
3.37037e-05
3.38972e-05
3.51954e-05
4.10208e-05
5.94156e-05
6.6626e-05
4.53345e-05
3.68727e-05
3.45993e-05
3.41081e-05
3.41106e-05
3.46103e-05
3.69001e-05
4.53654e-05
6.6619e-05
4.53679e-05
3.49438e-05
3.39537e-05
3.43951e-05
3.47318e-05
3.47381e-05
3.44244e-05
3.40413e-05
3.49425e-05
4.53281e-05
3.6901e-05
3.40415e-05
3.49934e-05
3.57728e-05
3.61729e-05
3.61792e-05
3.57931e-05
3.49933e-05
3.39532e-05
3.68702e-05
3.46107e-05
3.44244e-05
3.57931e-05
3.66648e-05
3.70728e-05
3.70804e-05
3.66642e-05
3.57723e-05
3.43945e-05
3.45985e-05
3.41108e-05
3.4738e-05
3.61792e-05
3.70806e-05
3.75377e-05
3.75372e-05
3.707e-05
3.61704e-05
3.47297e-05
3.41071e-05
3.4108e-05
3.47317e-05
3.6173e-05
3.70731e-05
3.75383e-05
3.75378e-05
3.70702e-05
3.61705e-05
3.47297e-05
3.41073e-05
3.45987e-05
3.4395e-05
3.5773e-05
3.66655e-05
3.70835e-05
3.70833e-05
3.66648e-05
3.57724e-05
3.43946e-05
3.45992e-05
3.68706e-05
3.39533e-05
3.49936e-05
3.57938e-05
3.61818e-05
3.61818e-05
3.57937e-05
3.49935e-05
3.39533e-05
3.68716e-05
4.5329e-05
3.49425e-05
3.40414e-05
3.44248e-05
3.47401e-05
3.47401e-05
3.44248e-05
3.40413e-05
3.49426e-05
4.53293e-05
6.66186e-05
4.53642e-05
3.68998e-05
3.46105e-05
3.41116e-05
3.41114e-05
3.46099e-05
3.68989e-05
4.53645e-05
6.66191e-05
7.40708e-05
5.06341e-05
3.92494e-05
3.57524e-05
3.4847e-05
3.48497e-05
3.57638e-05
3.92763e-05
5.06634e-05
7.40657e-05
5.06656e-05
3.62566e-05
3.40855e-05
3.4288e-05
3.45793e-05
3.45858e-05
3.43177e-05
3.41732e-05
3.6255e-05
5.06276e-05
3.92773e-05
3.41735e-05
3.48341e-05
3.56036e-05
3.60132e-05
3.60195e-05
3.5624e-05
3.48339e-05
3.40847e-05
3.92465e-05
3.57642e-05
3.43177e-05
3.56241e-05
3.65219e-05
3.69456e-05
3.69531e-05
3.65213e-05
3.56029e-05
3.42872e-05
3.57514e-05
3.48499e-05
3.45858e-05
3.60196e-05
3.69534e-05
3.74269e-05
3.74264e-05
3.69427e-05
3.60105e-05
3.4577e-05