/*--------------------------------*- C++ -*----------------------------------*\
| =========                 |                                                 |
| \\      /  F ield         | OpenFOAM: The Open Source CFD Toolbox           |
|  \\    /   O peration     | Version:  2406                                  |
|   \\  /    A nd           | Website:  www.openfoam.com                      |
|    \\/     M anipulation  |                                                 |
\*---------------------------------------------------------------------------*/
FoamFile
{
    version     2.0;
    format      ascii;
    arch        "LSB;label=32;scalar=64";
    class       volScalarField;
    location    "200";
    object      p;
}
// * * * * * * * * * * * * * * * * * * * * * * * * * * * * * * * * * * * * * //

dimensions      [0 2 -2 0 0 0 0];

internalField   nonuniform List<scalar> 
25000
(
1.25805e-06
-0.000903919
-0.00158951
-0.00204752
-0.00227645
-0.0022761
-0.00204651
-0.0015881
-0.000902345
4.19075e-06
-0.000902897
-0.00193745
-0.0027165
-0.0032365
-0.00349573
-0.0034954
-0.00323558
-0.00271513
-0.00193591
-0.000902032
-0.00158814
-0.00271587
-0.00355802
-0.00411877
-0.00439821
-0.00439796
-0.00411806
-0.00355699
-0.00271477
-0.00158742
-0.00204617
-0.00323559
-0.00411835
-0.00470354
-0.0049948
-0.00499463
-0.00470306
-0.00411767
-0.00323481
-0.00204541
-0.0022752
-0.00349471
-0.00439756
-0.0049945
-0.00529136
-0.00529126
-0.00499422
-0.00439713
-0.00349419
-0.00227455
-0.00227502
-0.00349441
-0.00439718
-0.00499414
-0.00529103
-0.00529098
-0.00499399
-0.00439695
-0.00349403
-0.00227442
-0.00204556
-0.00323461
-0.00411724
-0.00470244
-0.00499382
-0.0049938
-0.00470238
-0.00411711
-0.00323436
-0.00204503
-0.00158728
-0.00271423
-0.00355614
-0.00411698
-0.00439663
-0.00439663
-0.00411697
-0.0035561
-0.00271404
-0.00158681
-0.000901594
-0.00193506
-0.00271395
-0.00323411
-0.00349365
-0.00349367
-0.00323414
-0.00271396
-0.00193495
-0.000901209
4.92974e-06
-0.000901226
-0.00158666
-0.00204476
-0.00227405
-0.00227407
-0.00204482
-0.00158671
-0.000901192
5.17294e-06
-0.017683
-0.0175474
-0.0174346
-0.0173537
-0.0173131
-0.0173141
-0.0173567
-0.0174404
-0.0175594
-0.0177008
-0.0175467
-0.0173688
-0.0172887
-0.0172405
-0.0172183
-0.0172193
-0.0172436
-0.0172945
-0.0173783
-0.0175593
-0.0174335
-0.0172882
-0.0172239
-0.0171926
-0.0171802
-0.0171811
-0.0171953
-0.0172285
-0.0172947
-0.0174406
-0.0173526
-0.0172398
-0.0171924
-0.017175
-0.0171702
-0.0171709
-0.0171769
-0.0171957
-0.0172441
-0.0173572
-0.017312
-0.0172175
-0.0171798
-0.01717
-0.0171696
-0.0171701
-0.0171715
-0.017182
-0.0172205
-0.0173152
-0.017313
-0.0172185
-0.0171805
-0.0171706
-0.01717
-0.0171703
-0.0171716
-0.0171821
-0.0172205
-0.0173153
-0.0173557
-0.0172429
-0.0171948
-0.0171767
-0.0171713
-0.0171715
-0.0171773
-0.0171959
-0.0172443
-0.0173573
-0.0174397
-0.0172939
-0.0172281
-0.0171954
-0.0171819
-0.0171821
-0.0171959
-0.0172288
-0.0172949
-0.0174407
-0.0175588
-0.0173779
-0.0172944
-0.017244
-0.0172204
-0.0172205
-0.0172443
-0.0172949
-0.0173786
-0.0175595
-0.0177004
-0.017559
-0.0174405
-0.0173572
-0.0173153
-0.0173154
-0.0173574
-0.0174408
-0.0175595
-0.0177009
-0.0367268
-0.0364408
-0.0362058
-0.0360486
-0.0359672
-0.0359678
-0.0360501
-0.0362074
-0.036443
-0.0367309
-0.036441
-0.0361047
-0.035845
-0.0356628
-0.0355716
-0.0355722
-0.0356643
-0.0358469
-0.0361066
-0.0364434
-0.0362061
-0.0358452
-0.0355674
-0.0353687
-0.0352674
-0.0352679
-0.03537
-0.0355693
-0.0358475
-0.0362084
-0.0360488
-0.0356631
-0.0353688
-0.0351626
-0.0350573
-0.0350577
-0.0351638
-0.0353706
-0.0356656
-0.0360518
-0.0359672
-0.0355717
-0.0352675
-0.0350573
-0.03495
-0.0349503
-0.0350584
-0.0352693
-0.0355742
-0.0359702
-0.0359676
-0.0355721
-0.035268
-0.0350577
-0.0349504
-0.0349507
-0.0350587
-0.0352696
-0.0355744
-0.0359704
-0.0360498
-0.0356642
-0.03537
-0.0351639
-0.0350585
-0.0350587
-0.0351647
-0.0353714
-0.0356662
-0.0360523
-0.0362069
-0.0358467
-0.0355693
-0.0353707
-0.0352694
-0.0352696
-0.0353714
-0.0355705
-0.0358485
-0.0362093
-0.0364425
-0.0361064
-0.0358475
-0.0356656
-0.0355743
-0.0355745
-0.0356662
-0.0358485
-0.0361079
-0.0364446
-0.0367305
-0.0364432
-0.0362084
-0.0360519
-0.0359703
-0.0359705
-0.0360524
-0.0362093
-0.0364446
-0.0367323
-0.0480864
-0.0479359
-0.0478148
-0.0477436
-0.0477055
-0.047706
-0.0477452
-0.0478169
-0.0479381
-0.0480894
-0.047937
-0.0477743
-0.0476325
-0.0475384
-0.0474927
-0.0474931
-0.0475397
-0.0476343
-0.0477761
-0.047939
-0.0478161
-0.0476331
-0.0474868
-0.0473832
-0.0473322
-0.0473325
-0.0473841
-0.0474883
-0.0476352
-0.0478187
-0.0477449
-0.0475392
-0.0473835
-0.047275
-0.0472211
-0.0472214
-0.0472758
-0.047385
-0.0475415
-0.047748
-0.0477066
-0.0474935
-0.0473327
-0.0472213
-0.0471655
-0.0471658
-0.0472222
-0.0473342
-0.0474957
-0.0477096
-0.047707
-0.0474939
-0.047333
-0.0472217
-0.0471659
-0.0471662
-0.0472226
-0.0473345
-0.0474961
-0.0477099
-0.0477462
-0.0475404
-0.0473847
-0.0472762
-0.0472224
-0.0472227
-0.047277
-0.0473861
-0.0475425
-0.0477489
-0.0478177
-0.0476351
-0.0474889
-0.0473854
-0.0473344
-0.0473347
-0.0473861
-0.0474901
-0.0476369
-0.0478203
-0.047939
-0.047777
-0.0476359
-0.047542
-0.047496
-0.0474962
-0.0475425
-0.0476368
-0.0477784
-0.0479411
-0.0480905
-0.04794
-0.0478196
-0.0477486
-0.04771
-0.04771
-0.0477489
-0.0478201
-0.047941
-0.048092
-0.0541571
-0.0540739
-0.0540071
-0.0539733
-0.0539537
-0.0539537
-0.0539737
-0.0540078
-0.0540747
-0.0541579
-0.054075
-0.0539742
-0.0538818
-0.0538269
-0.0537996
-0.0537996
-0.0538271
-0.0538824
-0.0539751
-0.0540758
-0.0540085
-0.0538824
-0.0537828
-0.0537186
-0.0536881
-0.0536881
-0.0537187
-0.053783
-0.0538832
-0.0540097
-0.0539751
-0.0538279
-0.053719
-0.053648
-0.0536145
-0.0536145
-0.0536481
-0.0537192
-0.0538286
-0.0539763
-0.0539557
-0.0538008
-0.0536887
-0.0536147
-0.0535794
-0.0535795
-0.0536149
-0.0536891
-0.0538014
-0.0539567
-0.0539559
-0.053801
-0.0536889
-0.0536148
-0.0535796
-0.0535797
-0.0536151
-0.0536893
-0.0538016
-0.0539568
-0.0539758
-0.0538284
-0.0537194
-0.0536484
-0.053615
-0.0536151
-0.0536487
-0.0537199
-0.0538292
-0.0539769
-0.0540096
-0.0538835
-0.0537836
-0.0537195
-0.0536891
-0.0536892
-0.0537198
-0.0537842
-0.0538843
-0.0540107
-0.0540761
-0.0539761
-0.0538837
-0.0538286
-0.0538013
-0.0538014
-0.0538289
-0.0538841
-0.0539768
-0.0540772
-0.0541591
-0.0540764
-0.05401
-0.0539762
-0.0539563
-0.0539564
-0.0539763
-0.0540102
-0.0540769
-0.0541599
-0.0583223
-0.0583069
-0.0582905
-0.058288
-0.0582842
-0.0582837
-0.058287
-0.058289
-0.0583047
-0.0583194
-0.0583072
-0.0582776
-0.058242
-0.0582246
-0.0582142
-0.0582139
-0.0582237
-0.0582407
-0.0582761
-0.0583054
-0.0582913
-0.0582424
-0.0581986
-0.0581728
-0.0581599
-0.0581596
-0.058172
-0.0581974
-0.0582412
-0.0582902
-0.0582895
-0.0582255
-0.0581732
-0.0581394
-0.0581234
-0.0581232
-0.0581389
-0.0581723
-0.0582245
-0.0582884
-0.0582862
-0.0582155
-0.0581606
-0.0581237
-0.058106
-0.0581059
-0.0581233
-0.0581599
-0.0582146
-0.0582852
-0.0582861
-0.0582155
-0.0581607
-0.0581238
-0.0581062
-0.058106
-0.0581235
-0.0581601
-0.0582148
-0.0582853
-0.0582894
-0.0582255
-0.0581733
-0.0581397
-0.0581237
-0.0581236
-0.0581395
-0.0581729
-0.0582251
-0.058289
-0.0582914
-0.0582425
-0.0581987
-0.0581731
-0.0581605
-0.0581604
-0.058173
-0.0581984
-0.0582422
-0.0582911
-0.0583069
-0.0582778
-0.0582424
-0.0582253
-0.0582152
-0.0582152
-0.0582252
-0.0582423
-0.0582777
-0.0583068
-0.0583214
-0.0583069
-0.0582913
-0.0582892
-0.0582857
-0.0582857
-0.0582892
-0.0582912
-0.0583068
-0.0583213
-0.0624733
-0.0624931
-0.0625027
-0.062515
-0.0625194
-0.0625191
-0.0625145
-0.0625019
-0.062492
-0.0624721
-0.0624935
-0.0625119
-0.0625181
-0.0625273
-0.0625297
-0.0625295
-0.0625268
-0.0625173
-0.0625109
-0.0624926
-0.0625038
-0.0625186
-0.0625242
-0.0625318
-0.0625348
-0.0625347
-0.0625315
-0.0625235
-0.0625177
-0.0625029
-0.0625167
-0.0625283
-0.0625323
-0.0625367
-0.0625389
-0.0625388
-0.0625365
-0.0625318
-0.0625275
-0.0625157
-0.0625213
-0.0625311
-0.0625357
-0.0625393
-0.0625413
-0.0625412
-0.062539
-0.0625352
-0.0625304
-0.0625205
-0.0625212
-0.0625311
-0.0625358
-0.0625395
-0.0625415
-0.0625414
-0.0625392
-0.0625354
-0.0625305
-0.0625207
-0.0625166
-0.0625284
-0.0625327
-0.0625373
-0.0625395
-0.0625394
-0.0625371
-0.0625323
-0.062528
-0.0625162
-0.0625039
-0.0625189
-0.0625247
-0.0625327
-0.0625358
-0.0625357
-0.0625325
-0.0625244
-0.0625185
-0.0625036
-0.0624938
-0.0625123
-0.0625188
-0.0625284
-0.062531
-0.062531
-0.0625282
-0.0625187
-0.0625121
-0.0624935
-0.0624736
-0.0624938
-0.0625039
-0.0625165
-0.0625211
-0.0625211
-0.0625164
-0.0625037
-0.0624936
-0.0624734
-0.0672294
-0.0672465
-0.0672549
-0.0672644
-0.0672677
-0.0672678
-0.0672649
-0.0672558
-0.0672476
-0.067231
-0.0672471
-0.0672679
-0.0672802
-0.0672918
-0.0672957
-0.0672959
-0.0672924
-0.0672811
-0.0672688
-0.0672483
-0.067256
-0.0672808
-0.0672956
-0.067309
-0.0673148
-0.067315
-0.0673097
-0.0672965
-0.0672817
-0.067257
-0.0672658
-0.0672927
-0.0673094
-0.0673227
-0.0673289
-0.0673291
-0.0673233
-0.0673103
-0.0672936
-0.0672667
-0.0672694
-0.0672969
-0.0673155
-0.0673293
-0.0673361
-0.0673362
-0.0673297
-0.0673162
-0.0672977
-0.0672703
-0.0672696
-0.0672973
-0.067316
-0.0673297
-0.0673365
-0.0673366
-0.0673301
-0.0673165
-0.067298
-0.0672705
-0.0672668
-0.0672939
-0.0673109
-0.0673242
-0.0673302
-0.0673303
-0.0673244
-0.0673112
-0.0672944
-0.0672674
-0.0672577
-0.0672827
-0.0672978
-0.0673113
-0.0673169
-0.0673169
-0.0673114
-0.0672979
-0.067283
-0.0672581
-0.0672497
-0.0672706
-0.0672831
-0.0672947
-0.0672986
-0.0672986
-0.0672947
-0.0672831
-0.0672706
-0.0672498
-0.0672331
-0.0672501
-0.0672585
-0.067268
-0.0672712
-0.0672712
-0.0672678
-0.0672584
-0.06725
-0.067233
-0.0724983
-0.0725043
-0.0725061
-0.0725098
-0.0725102
-0.0725104
-0.0725101
-0.0725067
-0.0725049
-0.0724991
-0.0725048
-0.0725146
-0.0725207
-0.0725266
-0.0725279
-0.0725281
-0.0725269
-0.0725213
-0.0725151
-0.0725052
-0.0725066
-0.0725209
-0.0725286
-0.0725363
-0.0725389
-0.072539
-0.0725367
-0.0725292
-0.0725214
-0.072507
-0.07251
-0.0725266
-0.0725363
-0.0725443
-0.0725474
-0.0725475
-0.0725446
-0.0725368
-0.0725272
-0.0725106
-0.0725104
-0.0725279
-0.0725389
-0.0725474
-0.0725511
-0.0725512
-0.0725476
-0.0725393
-0.0725285
-0.0725111
-0.0725103
-0.0725279
-0.0725389
-0.0725474
-0.0725511
-0.0725512
-0.0725477
-0.0725393
-0.0725285
-0.0725111
-0.07251
-0.0725267
-0.0725365
-0.0725445
-0.0725475
-0.0725476
-0.0725447
-0.0725368
-0.0725272
-0.0725106
-0.0725065
-0.0725211
-0.072529
-0.0725366
-0.0725391
-0.0725392
-0.0725367
-0.0725292
-0.0725214
-0.072507
-0.0725048
-0.0725149
-0.0725212
-0.072527
-0.0725283
-0.0725283
-0.0725271
-0.0725214
-0.0725152
-0.0725051
-0.0724988
-0.0725049
-0.0725068
-0.0725104
-0.0725108
-0.0725109
-0.0725104
-0.0725069
-0.0725051
-0.0724991
-0.0780129
-0.0780126
-0.0780112
-0.0780117
-0.0780107
-0.0780108
-0.0780119
-0.0780114
-0.0780128
-0.0780132
-0.078012
-0.0780152
-0.0780169
-0.0780189
-0.0780186
-0.0780187
-0.078019
-0.0780172
-0.0780156
-0.0780126
-0.07801
-0.0780162
-0.0780186
-0.078022
-0.0780225
-0.0780225
-0.0780221
-0.0780189
-0.0780167
-0.0780107
-0.0780099
-0.0780176
-0.0780214
-0.0780251
-0.0780259
-0.0780259
-0.0780251
-0.0780217
-0.0780181
-0.0780107
-0.0780086
-0.078017
-0.0780214
-0.0780254
-0.0780266
-0.0780266
-0.0780255
-0.0780217
-0.0780176
-0.0780095
-0.0780083
-0.0780167
-0.078021
-0.0780249
-0.0780262
-0.0780262
-0.0780252
-0.0780214
-0.0780173
-0.0780092
-0.0780091
-0.0780167
-0.0780203
-0.0780238
-0.0780247
-0.0780248
-0.0780242
-0.0780208
-0.0780174
-0.0780101
-0.0780085
-0.0780148
-0.078017
-0.0780201
-0.0780206
-0.0780207
-0.0780205
-0.0780175
-0.0780155
-0.0780096
-0.0780099
-0.0780132
-0.0780147
-0.0780165
-0.0780163
-0.0780164
-0.0780168
-0.0780153
-0.078014
-0.078011
-0.0780103
-0.07801
-0.0780086
-0.078009
-0.0780081
-0.0780082
-0.0780094
-0.0780092
-0.0780109
-0.0780114
-0.0836102
-0.0836067
-0.0836036
-0.0836021
-0.0836003
-0.0836
-0.0836013
-0.0836024
-0.0836051
-0.0836083
-0.0836054
-0.0836044
-0.0836029
-0.0836022
-0.0836008
-0.0836005
-0.0836013
-0.0836017
-0.083603
-0.0836039
-0.0836012
-0.0836017
-0.0836003
-0.0836004
-0.0835993
-0.083599
-0.0835996
-0.0835991
-0.0836004
-0.0835999
-0.0835991
-0.0836002
-0.0835996
-0.0835999
-0.0835991
-0.0835988
-0.0835992
-0.0835985
-0.083599
-0.0835979
-0.083597
-0.0835984
-0.0835978
-0.0835984
-0.0835978
-0.0835976
-0.0835978
-0.083597
-0.0835973
-0.0835957
-0.0835965
-0.0835977
-0.083597
-0.0835975
-0.083597
-0.0835969
-0.0835972
-0.0835964
-0.0835968
-0.0835953
-0.0835976
-0.0835983
-0.0835972
-0.0835975
-0.0835967
-0.0835967
-0.0835973
-0.0835968
-0.0835976
-0.0835966
-0.0835985
-0.0835985
-0.0835966
-0.0835966
-0.0835956
-0.0835955
-0.0835964
-0.0835963
-0.083598
-0.0835977
-0.0836013
-0.0835998
-0.0835979
-0.083597
-0.0835957
-0.0835957
-0.0835968
-0.0835976
-0.0835994
-0.0836007
-0.0836047
-0.0836008
-0.0835974
-0.0835959
-0.0835941
-0.0835941
-0.0835957
-0.0835972
-0.0836004
-0.0836042
-0.0892074
-0.0892026
-0.089199
-0.0891966
-0.0891948
-0.0891946
-0.0891961
-0.0891981
-0.0892015
-0.0892061
-0.0892017
-0.0891982
-0.0891947
-0.0891924
-0.0891905
-0.0891901
-0.0891915
-0.0891933
-0.0891966
-0.0892
-0.0891974
-0.089194
-0.0891898
-0.0891877
-0.0891857
-0.0891853
-0.0891867
-0.0891881
-0.089192
-0.0891953
-0.0891948
-0.0891912
-0.0891873
-0.0891852
-0.0891832
-0.0891828
-0.0891841
-0.0891856
-0.0891891
-0.0891924
-0.0891927
-0.089189
-0.0891849
-0.0891828
-0.089181
-0.0891806
-0.0891818
-0.0891832
-0.0891868
-0.0891901
-0.0891922
-0.0891884
-0.0891842
-0.0891821
-0.0891803
-0.0891799
-0.0891812
-0.0891826
-0.0891863
-0.0891896
-0.0891935
-0.0891895
-0.0891852
-0.0891831
-0.0891811
-0.0891809
-0.0891822
-0.0891838
-0.0891875
-0.089191
-0.0891953
-0.0891911
-0.0891864
-0.0891843
-0.0891823
-0.0891821
-0.0891835
-0.0891852
-0.0891893
-0.089193
-0.0891986
-0.0891942
-0.0891901
-0.0891876
-0.0891857
-0.0891855
-0.089187
-0.0891891
-0.0891927
-0.0891966
-0.0892032
-0.0891976
-0.0891933
-0.0891908
-0.0891889
-0.0891887
-0.0891903
-0.0891925
-0.0891964
-0.0892015
-0.0947573
-0.0947529
-0.0947494
-0.0947471
-0.0947458
-0.0947459
-0.0947474
-0.0947498
-0.0947534
-0.0947581
-0.0947521
-0.0947479
-0.0947438
-0.0947412
-0.0947395
-0.0947396
-0.0947413
-0.094744
-0.0947481
-0.0947525
-0.0947485
-0.0947436
-0.0947385
-0.0947358
-0.0947339
-0.094734
-0.0947359
-0.0947385
-0.0947435
-0.0947485
-0.0947462
-0.0947409
-0.0947358
-0.094733
-0.0947311
-0.0947311
-0.094733
-0.0947357
-0.0947407
-0.0947461
-0.0947448
-0.0947392
-0.094734
-0.0947311
-0.0947291
-0.0947291
-0.094731
-0.0947337
-0.0947389
-0.0947444
-0.0947449
-0.0947393
-0.094734
-0.0947312
-0.0947292
-0.0947291
-0.0947309
-0.0947336
-0.0947388
-0.0947444
-0.0947466
-0.0947411
-0.094736
-0.0947333
-0.0947312
-0.0947311
-0.0947329
-0.0947355
-0.0947404
-0.0947459
-0.0947492
-0.0947438
-0.0947386
-0.094736
-0.0947341
-0.0947339
-0.0947357
-0.0947381
-0.0947431
-0.0947484
-0.094753
-0.094748
-0.0947437
-0.0947411
-0.0947394
-0.0947393
-0.0947408
-0.0947433
-0.0947475
-0.0947523
-0.094758
-0.0947528
-0.094749
-0.0947467
-0.0947451
-0.0947451
-0.0947465
-0.0947488
-0.0947524
-0.0947574
-0.100253
-0.100249
-0.100245
-0.100243
-0.100242
-0.100242
-0.100243
-0.100246
-0.10025
-0.100255
-0.100249
-0.100244
-0.10024
-0.100237
-0.100235
-0.100236
-0.100238
-0.100241
-0.100245
-0.10025
-0.100246
-0.10024
-0.100235
-0.100232
-0.10023
-0.10023
-0.100233
-0.100236
-0.100241
-0.100247
-0.100244
-0.100238
-0.100232
-0.100229
-0.100228
-0.100228
-0.10023
-0.100233
-0.100239
-0.100245
-0.100243
-0.100237
-0.100231
-0.100228
-0.100226
-0.100226
-0.100229
-0.100232
-0.100238
-0.100244
-0.100243
-0.100237
-0.100232
-0.100229
-0.100227
-0.100227
-0.100229
-0.100232
-0.100238
-0.100244
-0.100245
-0.100239
-0.100234
-0.100231
-0.100229
-0.100229
-0.100231
-0.100234
-0.10024
-0.100246
-0.100248
-0.100242
-0.100237
-0.100235
-0.100233
-0.100233
-0.100235
-0.100238
-0.100243
-0.100249
-0.100252
-0.100247
-0.100243
-0.10024
-0.100239
-0.100239
-0.10024
-0.100243
-0.100247
-0.100252
-0.100257
-0.100252
-0.100249
-0.100246
-0.100245
-0.100245
-0.100247
-0.100249
-0.100253
-0.100257
-0.105692
-0.105687
-0.105684
-0.105682
-0.105681
-0.105681
-0.105682
-0.105684
-0.105688
-0.105693
-0.105688
-0.105683
-0.105679
-0.105676
-0.105675
-0.105675
-0.105677
-0.10568
-0.105684
-0.105689
-0.105686
-0.10568
-0.105675
-0.105672
-0.10567
-0.105671
-0.105673
-0.105676
-0.105681
-0.105687
-0.105684
-0.105678
-0.105673
-0.10567
-0.105668
-0.105669
-0.105671
-0.105674
-0.10568
-0.105685
-0.105683
-0.105677
-0.105672
-0.105669
-0.105667
-0.105668
-0.10567
-0.105673
-0.105679
-0.105685
-0.105683
-0.105677
-0.105672
-0.10567
-0.105668
-0.105668
-0.105671
-0.105674
-0.105679
-0.105685
-0.105685
-0.10568
-0.105675
-0.105672
-0.105671
-0.105671
-0.105673
-0.105676
-0.105681
-0.105687
-0.105688
-0.105683
-0.105678
-0.105676
-0.105675
-0.105675
-0.105677
-0.105679
-0.105684
-0.105689
-0.105692
-0.105687
-0.105684
-0.105682
-0.10568
-0.105681
-0.105682
-0.105685
-0.105688
-0.105693
-0.105696
-0.105692
-0.10569
-0.105688
-0.105687
-0.105687
-0.105688
-0.10569
-0.105693
-0.105697
-0.111089
-0.111085
-0.111082
-0.11108
-0.111079
-0.111079
-0.11108
-0.111082
-0.111085
-0.11109
-0.111086
-0.111081
-0.111077
-0.111075
-0.111074
-0.111074
-0.111075
-0.111078
-0.111082
-0.111087
-0.111084
-0.111078
-0.111073
-0.111071
-0.111069
-0.111069
-0.111071
-0.111074
-0.111079
-0.111085
-0.111082
-0.111076
-0.111071
-0.111068
-0.111067
-0.111067
-0.111069
-0.111072
-0.111077
-0.111083
-0.111081
-0.111075
-0.11107
-0.111067
-0.111066
-0.111066
-0.111068
-0.111071
-0.111076
-0.111082
-0.111081
-0.111075
-0.11107
-0.111068
-0.111066
-0.111066
-0.111068
-0.111071
-0.111077
-0.111083
-0.111082
-0.111077
-0.111073
-0.11107
-0.111068
-0.111069
-0.11107
-0.111073
-0.111078
-0.111084
-0.111085
-0.11108
-0.111076
-0.111073
-0.111072
-0.111072
-0.111074
-0.111076
-0.111081
-0.111086
-0.111088
-0.111084
-0.111081
-0.111078
-0.111077
-0.111077
-0.111079
-0.111081
-0.111085
-0.111089
-0.111092
-0.111089
-0.111086
-0.111084
-0.111083
-0.111083
-0.111084
-0.111087
-0.11109
-0.111093
-0.116452
-0.116447
-0.116444
-0.116443
-0.116442
-0.116442
-0.116443
-0.116445
-0.116448
-0.116452
-0.116448
-0.116443
-0.11644
-0.116438
-0.116437
-0.116437
-0.116438
-0.11644
-0.116444
-0.116449
-0.116445
-0.11644
-0.116436
-0.116434
-0.116433
-0.116433
-0.116434
-0.116436
-0.116441
-0.116446
-0.116443
-0.116438
-0.116434
-0.116431
-0.11643
-0.11643
-0.116431
-0.116434
-0.116439
-0.116444
-0.116442
-0.116437
-0.116432
-0.11643
-0.116428
-0.116428
-0.11643
-0.116433
-0.116437
-0.116443
-0.116443
-0.116437
-0.116432
-0.116429
-0.116428
-0.116428
-0.11643
-0.116433
-0.116438
-0.116443
-0.116443
-0.116438
-0.116434
-0.116431
-0.116429
-0.11643
-0.116431
-0.116434
-0.116439
-0.116444
-0.116445
-0.11644
-0.116436
-0.116434
-0.116432
-0.116432
-0.116434
-0.116437
-0.116441
-0.116446
-0.116448
-0.116444
-0.116441
-0.116438
-0.116437
-0.116437
-0.116438
-0.116441
-0.116444
-0.116449
-0.116452
-0.116448
-0.116445
-0.116444
-0.116443
-0.116443
-0.116444
-0.116446
-0.116449
-0.116452
-0.12178
-0.121776
-0.121773
-0.121771
-0.121771
-0.121771
-0.121772
-0.121773
-0.121776
-0.12178
-0.121775
-0.121771
-0.121768
-0.121766
-0.121765
-0.121765
-0.121767
-0.121769
-0.121772
-0.121776
-0.121772
-0.121768
-0.121764
-0.121762
-0.121761
-0.12176
-0.121762
-0.121764
-0.121768
-0.121773
-0.12177
-0.121765
-0.121761
-0.121759
-0.121757
-0.121757
-0.121759
-0.121761
-0.121765
-0.12177
-0.121769
-0.121764
-0.12176
-0.121757
-0.121755
-0.121755
-0.121757
-0.121759
-0.121764
-0.121769
-0.121769
-0.121764
-0.121759
-0.121756
-0.121755
-0.121755
-0.121756
-0.121759
-0.121764
-0.121769
-0.12177
-0.121765
-0.12176
-0.121757
-0.121756
-0.121756
-0.121757
-0.12176
-0.121765
-0.12177
-0.121771
-0.121766
-0.121762
-0.12176
-0.121758
-0.121758
-0.12176
-0.121762
-0.121766
-0.121771
-0.121774
-0.121769
-0.121766
-0.121764
-0.121763
-0.121763
-0.121764
-0.121766
-0.121769
-0.121774
-0.121777
-0.121773
-0.121771
-0.121769
-0.121768
-0.121768
-0.121769
-0.12177
-0.121773
-0.121778
-0.127071
-0.127066
-0.127064
-0.127062
-0.127061
-0.127061
-0.127062
-0.127064
-0.127066
-0.127071
-0.127066
-0.127062
-0.127059
-0.127057
-0.127056
-0.127056
-0.127057
-0.127059
-0.127061
-0.127065
-0.127062
-0.127058
-0.127054
-0.127052
-0.127051
-0.12705
-0.127052
-0.127054
-0.127057
-0.127061
-0.12706
-0.127055
-0.127051
-0.127049
-0.127047
-0.127047
-0.127048
-0.127051
-0.127054
-0.127059
-0.127059
-0.127054
-0.12705
-0.127047
-0.127045
-0.127045
-0.127046
-0.127049
-0.127053
-0.127058
-0.127059
-0.127054
-0.127049
-0.127046
-0.127044
-0.127044
-0.127046
-0.127048
-0.127053
-0.127058
-0.127059
-0.127054
-0.12705
-0.127047
-0.127045
-0.127045
-0.127047
-0.127049
-0.127053
-0.127058
-0.127061
-0.127056
-0.127051
-0.127049
-0.127047
-0.127047
-0.127049
-0.127051
-0.127055
-0.12706
-0.127063
-0.127059
-0.127055
-0.127053
-0.127052
-0.127051
-0.127052
-0.127054
-0.127058
-0.127062
-0.127068
-0.127062
-0.127059
-0.127057
-0.127056
-0.127056
-0.127057
-0.127059
-0.127062
-0.127067
-0.132323
-0.132316
-0.132313
-0.132312
-0.132311
-0.13231
-0.132311
-0.132313
-0.132315
-0.132322
-0.132315
-0.132311
-0.132308
-0.132306
-0.132305
-0.132305
-0.132306
-0.132308
-0.132311
-0.132314
-0.132312
-0.132308
-0.132304
-0.132301
-0.1323
-0.1323
-0.132301
-0.132303
-0.132307
-0.132311
-0.13231
-0.132305
-0.132301
-0.132298
-0.132297
-0.132296
-0.132298
-0.1323
-0.132304
-0.132309
-0.132309
-0.132304
-0.132299
-0.132296
-0.132295
-0.132295
-0.132296
-0.132298
-0.132303
-0.132308
-0.132309
-0.132303
-0.132299
-0.132296
-0.132294
-0.132294
-0.132296
-0.132298
-0.132302
-0.132307
-0.132309
-0.132304
-0.1323
-0.132297
-0.132295
-0.132295
-0.132296
-0.132299
-0.132303
-0.132308
-0.132311
-0.132306
-0.132301
-0.132299
-0.132297
-0.132297
-0.132298
-0.132301
-0.132305
-0.132309
-0.132313
-0.132308
-0.132305
-0.132302
-0.132301
-0.132301
-0.132302
-0.132304
-0.132308
-0.132312
-0.13232
-0.132312
-0.132309
-0.132307
-0.132306
-0.132306
-0.132307
-0.132309
-0.132311
-0.132319
-0.137524
-0.137515
-0.137513
-0.137512
-0.137511
-0.137511
-0.137512
-0.137514
-0.137516
-0.137525
-0.137514
-0.137511
-0.137508
-0.137506
-0.137506
-0.137506
-0.137507
-0.137509
-0.137512
-0.137516
-0.137511
-0.137508
-0.137504
-0.137502
-0.137501
-0.137501
-0.137503
-0.137505
-0.137509
-0.137513
-0.137509
-0.137506
-0.137502
-0.1375
-0.137499
-0.137499
-0.1375
-0.137503
-0.137507
-0.137511
-0.137509
-0.137504
-0.137501
-0.137499
-0.137497
-0.137498
-0.137499
-0.137502
-0.137506
-0.13751
-0.137508
-0.137504
-0.137501
-0.137499
-0.137497
-0.137498
-0.137499
-0.137502
-0.137505
-0.13751
-0.137509
-0.137505
-0.137502
-0.1375
-0.137499
-0.137499
-0.1375
-0.137503
-0.137506
-0.137511
-0.137511
-0.137507
-0.137504
-0.137502
-0.137501
-0.137501
-0.137503
-0.137505
-0.137508
-0.137513
-0.137514
-0.13751
-0.137507
-0.137506
-0.137505
-0.137505
-0.137506
-0.137508
-0.137512
-0.137515
-0.137523
-0.137514
-0.137512
-0.13751
-0.13751
-0.13751
-0.137511
-0.137513
-0.137515
-0.137525
-0.142693
-0.142681
-0.142678
-0.142676
-0.142674
-0.142674
-0.142675
-0.142677
-0.142679
-0.14269
-0.142681
-0.142677
-0.142673
-0.142671
-0.142669
-0.142669
-0.14267
-0.142672
-0.142675
-0.142679
-0.142678
-0.142674
-0.14267
-0.142667
-0.142665
-0.142665
-0.142666
-0.142668
-0.142672
-0.142676
-0.142676
-0.142671
-0.142667
-0.142665
-0.142663
-0.142663
-0.142664
-0.142666
-0.14267
-0.142674
-0.142675
-0.14267
-0.142666
-0.142663
-0.142662
-0.142662
-0.142663
-0.142665
-0.142669
-0.142673
-0.142674
-0.14267
-0.142666
-0.142663
-0.142662
-0.142662
-0.142663
-0.142665
-0.142669
-0.142673
-0.142675
-0.14267
-0.142667
-0.142664
-0.142663
-0.142663
-0.142664
-0.142666
-0.14267
-0.142674
-0.142677
-0.142672
-0.142669
-0.142667
-0.142665
-0.142665
-0.142666
-0.142668
-0.142672
-0.142676
-0.14268
-0.142675
-0.142672
-0.14267
-0.142669
-0.142669
-0.14267
-0.142672
-0.142675
-0.142679
-0.142691
-0.142679
-0.142676
-0.142674
-0.142673
-0.142673
-0.142674
-0.142676
-0.142679
-0.14269
-0.147812
-0.1478
-0.147797
-0.147795
-0.147794
-0.147794
-0.147794
-0.147796
-0.147799
-0.14781
-0.147801
-0.147796
-0.147793
-0.147791
-0.14779
-0.14779
-0.14779
-0.147792
-0.147795
-0.147799
-0.147798
-0.147794
-0.14779
-0.147788
-0.147787
-0.147787
-0.147787
-0.147789
-0.147792
-0.147797
-0.147796
-0.147792
-0.147788
-0.147786
-0.147785
-0.147785
-0.147786
-0.147788
-0.147791
-0.147794
-0.147795
-0.147791
-0.147788
-0.147785
-0.147784
-0.147784
-0.147785
-0.147787
-0.14779
-0.147793
-0.147796
-0.147791
-0.147788
-0.147786
-0.147784
-0.147784
-0.147785
-0.147787
-0.14779
-0.147793
-0.147797
-0.147793
-0.147789
-0.147787
-0.147786
-0.147785
-0.147786
-0.147788
-0.147791
-0.147794
-0.1478
-0.147795
-0.147792
-0.14779
-0.147788
-0.147788
-0.147789
-0.14779
-0.147793
-0.147797
-0.147803
-0.147799
-0.147795
-0.147793
-0.147792
-0.147792
-0.147792
-0.147794
-0.147796
-0.1478
-0.147815
-0.147803
-0.1478
-0.147797
-0.147796
-0.147796
-0.147796
-0.147798
-0.1478
-0.147812
-0.152906
-0.152894
-0.152891
-0.152889
-0.152888
-0.152888
-0.152889
-0.152892
-0.152895
-0.152906
-0.152895
-0.15289
-0.152887
-0.152885
-0.152884
-0.152884
-0.152885
-0.152887
-0.15289
-0.152895
-0.152893
-0.152887
-0.152884
-0.152882
-0.152881
-0.152881
-0.152882
-0.152884
-0.152887
-0.152892
-0.15289
-0.152885
-0.152882
-0.15288
-0.152879
-0.152879
-0.15288
-0.152882
-0.152885
-0.152889
-0.152889
-0.152884
-0.152881
-0.152879
-0.152878
-0.152878
-0.152879
-0.152881
-0.152884
-0.152888
-0.152889
-0.152885
-0.152881
-0.152879
-0.152878
-0.152878
-0.152879
-0.152881
-0.152884
-0.152888
-0.15289
-0.152886
-0.152883
-0.15288
-0.152879
-0.152879
-0.15288
-0.152882
-0.152885
-0.152889
-0.152893
-0.152888
-0.152885
-0.152883
-0.152881
-0.152881
-0.152882
-0.152885
-0.152888
-0.152893
-0.152896
-0.152891
-0.152888
-0.152886
-0.152885
-0.152885
-0.152886
-0.152888
-0.152891
-0.152895
-0.152908
-0.152896
-0.152894
-0.15289
-0.152889
-0.152889
-0.15289
-0.152893
-0.152896
-0.152907
-0.157968
-0.157958
-0.157956
-0.157953
-0.157953
-0.157953
-0.157954
-0.157958
-0.15796
-0.157971
-0.157958
-0.157952
-0.15795
-0.157949
-0.157949
-0.157949
-0.15795
-0.157952
-0.157954
-0.15796
-0.157955
-0.15795
-0.157947
-0.157946
-0.157946
-0.157946
-0.157947
-0.157949
-0.157952
-0.157958
-0.157951
-0.157948
-0.157945
-0.157944
-0.157943
-0.157944
-0.157945
-0.157947
-0.15795
-0.157954
-0.15795
-0.157947
-0.157944
-0.157943
-0.157942
-0.157942
-0.157943
-0.157946
-0.157949
-0.157953
-0.15795
-0.157947
-0.157944
-0.157942
-0.157942
-0.157942
-0.157943
-0.157945
-0.157949
-0.157953
-0.157951
-0.157948
-0.157945
-0.157943
-0.157943
-0.157943
-0.157944
-0.157947
-0.15795
-0.157954
-0.157955
-0.157949
-0.157947
-0.157946
-0.157945
-0.157945
-0.157946
-0.157949
-0.157952
-0.157957
-0.157956
-0.157952
-0.15795
-0.157949
-0.157948
-0.157948
-0.157949
-0.157951
-0.157954
-0.157959
-0.157967
-0.157957
-0.157956
-0.157952
-0.157952
-0.157952
-0.157953
-0.157957
-0.157959
-0.15797
-0.163012
-0.163002
-0.163002
-0.162998
-0.162997
-0.162997
-0.162998
-0.163002
-0.163002
-0.163013
-0.163001
-0.162996
-0.162995
-0.162993
-0.162993
-0.162993
-0.162993
-0.162995
-0.162996
-0.163002
-0.163
-0.162993
-0.162991
-0.16299
-0.162989
-0.162989
-0.16299
-0.162992
-0.162994
-0.163
-0.162995
-0.162991
-0.162988
-0.162987
-0.162986
-0.162986
-0.162987
-0.162989
-0.162991
-0.162996
-0.162994
-0.16299
-0.162987
-0.162985
-0.162984
-0.162984
-0.162985
-0.162987
-0.16299
-0.162994
-0.162993
-0.162989
-0.162986
-0.162985
-0.162984
-0.162984
-0.162985
-0.162987
-0.16299
-0.162994
-0.162994
-0.162989
-0.162987
-0.162985
-0.162984
-0.162984
-0.162985
-0.162987
-0.16299
-0.162995
-0.162997
-0.162991
-0.162988
-0.162986
-0.162986
-0.162986
-0.162987
-0.162989
-0.162991
-0.162998
-0.162997
-0.162992
-0.16299
-0.162989
-0.162988
-0.162988
-0.162989
-0.162991
-0.162992
-0.162998
-0.163008
-0.162997
-0.162997
-0.162993
-0.162992
-0.162992
-0.162993
-0.162997
-0.162998
-0.163008
-0.168034
-0.168023
-0.168024
-0.16802
-0.168019
-0.168019
-0.16802
-0.168023
-0.168022
-0.168033
-0.168022
-0.168017
-0.168016
-0.168014
-0.168014
-0.168013
-0.168014
-0.168015
-0.168015
-0.168021
-0.168022
-0.168015
-0.168013
-0.168011
-0.16801
-0.16801
-0.168011
-0.168013
-0.168014
-0.168021
-0.168018
-0.168013
-0.168011
-0.168009
-0.168008
-0.168008
-0.168008
-0.16801
-0.168012
-0.168017
-0.168017
-0.168012
-0.168009
-0.168007
-0.168006
-0.168006
-0.168007
-0.168009
-0.168011
-0.168016
-0.168017
-0.168012
-0.168009
-0.168007
-0.168006
-0.168006
-0.168007
-0.168008
-0.168011
-0.168016
-0.168017
-0.168012
-0.168009
-0.168007
-0.168006
-0.168006
-0.168007
-0.168009
-0.168011
-0.168016
-0.168021
-0.168013
-0.168011
-0.168009
-0.168008
-0.168008
-0.168008
-0.16801
-0.168012
-0.16802
-0.16802
-0.168013
-0.168012
-0.168011
-0.16801
-0.16801
-0.16801
-0.168012
-0.168013
-0.168019
-0.168031
-0.168019
-0.168019
-0.168016
-0.168015
-0.168015
-0.168015
-0.168019
-0.168018
-0.16803
-0.173039
-0.173026
-0.173028
-0.173024
-0.173023
-0.173023
-0.173024
-0.173027
-0.173025
-0.173037
-0.173026
-0.17302
-0.17302
-0.173018
-0.173017
-0.173016
-0.173017
-0.173018
-0.173019
-0.173024
-0.173027
-0.173019
-0.173018
-0.173015
-0.173014
-0.173014
-0.173015
-0.173017
-0.173018
-0.173025
-0.173024
-0.173017
-0.173015
-0.173013
-0.173012
-0.173012
-0.173013
-0.173014
-0.173016
-0.173022
-0.173023
-0.173017
-0.173015
-0.173012
-0.173011
-0.173011
-0.173012
-0.173013
-0.173016
-0.173022
-0.173023
-0.173017
-0.173014
-0.173012
-0.173011
-0.173011
-0.173012
-0.173013
-0.173015
-0.173022
-0.173024
-0.173017
-0.173015
-0.173013
-0.173012
-0.173012
-0.173012
-0.173014
-0.173016
-0.173022
-0.173026
-0.173018
-0.173017
-0.173014
-0.173013
-0.173013
-0.173014
-0.173016
-0.173017
-0.173025
-0.173025
-0.173019
-0.173018
-0.173016
-0.173015
-0.173015
-0.173015
-0.173017
-0.173018
-0.173024
-0.173038
-0.173024
-0.173025
-0.173022
-0.173021
-0.173021
-0.173022
-0.173025
-0.173024
-0.173037