/*--------------------------------*- C++ -*----------------------------------*\
| =========                 |                                                 |
| \\      /  F ield         | OpenFOAM: The Open Source CFD Toolbox           |
|  \\    /   O peration     | Version:  2406                                  |
|   \\  /    A nd           | Website:  www.openfoam.com                      |
|    \\/     M anipulation  |                                                 |
\*---------------------------------------------------------------------------*/
FoamFile
{
    version     2.0;
    format      ascii;
    arch        "LSB;label=32;scalar=64";
    class       surfaceScalarField;
    location    "200";
    object      phi;
}
// * * * * * * * * * * * * * * * * * * * * * * * * * * * * * * * * * * * * * //

dimensions      [0 3 -1 0 0 0 0];

oriented        oriented;

internalField   nonuniform List<scalar> 
73500
(
1.53595e-06
1.5328e-06
4.76413e-05
-1.80742e-06
-1.80553e-06
1.1551e-06
1.35626e-06
5.15902e-05
-1.63087e-06
7.70782e-07
1.24714e-06
5.4599e-05
-1.52125e-06
3.86696e-07
1.18111e-06
5.66277e-05
-1.45525e-06
1.48619e-09
1.14841e-06
5.76492e-05
-1.42071e-06
-3.83205e-07
1.14848e-06
5.76493e-05
-1.42104e-06
-7.65067e-07
1.18137e-06
5.66278e-05
-1.45673e-06
-1.14375e-06
1.24689e-06
5.4599e-05
-1.52466e-06
-1.5087e-06
1.3529e-06
5.15902e-05
-1.64028e-06
1.50929e-06
4.76412e-05
-1.82875e-06
-1.82921e-06
1.35927e-06
1.15422e-06
5.15902e-05
-1.63374e-06
1.03546e-06
1.0337e-06
5.52298e-05
6.94166e-07
9.48848e-07
5.80074e-05
3.48714e-07
8.93575e-07
5.98816e-05
1.42006e-09
8.66365e-07
6.08255e-05
-3.4537e-07
8.66318e-07
6.08256e-05
-6.89718e-07
8.9314e-07
5.98816e-05
-1.02928e-06
9.47464e-07
5.80075e-05
-1.35231e-06
1.02993e-06
5.52299e-05
1.14434e-06
5.15902e-05
-1.63972e-06
1.2492e-06
7.71174e-07
5.4599e-05
-1.52168e-06
9.50564e-07
6.9354e-07
5.80075e-05
6.38252e-07
6.37146e-07
6.06102e-05
3.20656e-07
5.98992e-07
6.23675e-05
1.28588e-09
5.79884e-07
6.32528e-05
-3.1791e-07
5.79708e-07
6.32529e-05
-6.35e-07
5.9842e-07
6.23676e-05
-9.46832e-07
6.35799e-07
6.06103e-05
-1.24638e-06
6.90501e-07
5.80076e-05
7.65804e-07
5.4599e-05
-1.52421e-06
1.1822e-06
3.87301e-07
5.66277e-05
-1.4553e-06
8.94795e-07
3.48572e-07
5.98816e-05
6.0009e-07
3.202e-07
6.23675e-05
3.01323e-07
3.00619e-07
6.40467e-05
1.06844e-09
2.90724e-07
6.48929e-05
-2.9905e-07
2.90578e-07
6.48929e-05
-5.97646e-07
3.00025e-07
6.40467e-05
-8.92573e-07
3.1891e-07
6.23676e-05
-1.18095e-06
3.46472e-07
5.98817e-05
3.84206e-07
5.66278e-05
-1.45635e-06
1.14884e-06
2.32309e-09
5.76493e-05
-1.42013e-06
8.67282e-07
1.80074e-09
6.08256e-05
5.80734e-07
1.11856e-09
6.32529e-05
2.91429e-07
7.1788e-10
6.48929e-05
9.11474e-10
4.34227e-10
6.57195e-05
-2.89615e-07
2.52579e-10
6.57196e-05
-5.78953e-07
1.78215e-10
6.48929e-05
-8.65717e-07
1.41902e-10
6.32529e-05
-1.14821e-06
8.26103e-11
6.08256e-05
9.79422e-11
5.76493e-05
-1.42094e-06
1.14851e-06
-3.82486e-07
5.76493e-05
-1.42047e-06
8.6673e-07
-3.45014e-07
6.08256e-05
5.80382e-07
-3.17758e-07
6.32529e-05
2.91159e-07
-2.99201e-07
6.48929e-05
7.3072e-10
-2.8987e-07
6.57196e-05
-2.89696e-07
-2.90017e-07
6.57196e-05
-5.79001e-07
-2.9967e-07
6.4893e-05
-8.65788e-07
-3.18667e-07
6.32529e-05
-1.14821e-06
-3.46206e-07
6.08256e-05
-3.84013e-07
5.76493e-05
-1.42098e-06
1.1811e-06
-7.64367e-07
5.66277e-05
-1.45584e-06
8.93369e-07
-6.892e-07
5.98816e-05
5.98803e-07
-6.34768e-07
6.23676e-05
3.00507e-07
-5.97556e-07
6.40467e-05
5.88986e-10
-5.79002e-07
6.4893e-05
-2.99349e-07
-5.79141e-07
6.4893e-05
-5.97828e-07
-5.97981e-07
6.40468e-05
-8.92654e-07
-6.35443e-07
6.23676e-05
-1.18105e-06
-6.90236e-07
5.98817e-05
-7.65546e-07
5.66278e-05
-1.45642e-06
1.24646e-06
-1.1432e-06
5.4599e-05
-1.52383e-06
9.47433e-07
-1.02881e-06
5.80076e-05
6.36049e-07
-9.46439e-07
6.06104e-05
3.19253e-07
-8.92282e-07
6.23676e-05
4.59153e-10
-8.65561e-07
6.3253e-05
-3.18363e-07
-8.65665e-07
6.3253e-05
-6.35291e-07
-8.9266e-07
6.23676e-05
-9.47028e-07
-9.4703e-07
6.06104e-05
-1.24652e-06
-1.02953e-06
5.80076e-05
-1.14403e-06
5.45991e-05
-1.52433e-06
1.35241e-06
-1.50835e-06
5.15902e-05
-1.63933e-06
1.02984e-06
-1.35182e-06
5.52299e-05
6.90656e-07
-1.24589e-06
5.80076e-05
3.46674e-07
-1.18055e-06
5.98817e-05
3.64137e-10
-1.14785e-06
6.08257e-05
-3.46044e-07
-1.14798e-06
6.08257e-05
-6.90082e-07
-1.18084e-06
5.98817e-05
-1.02953e-06
-1.24638e-06
5.80076e-05
-1.35254e-06
-1.35243e-06
5.523e-05
-1.50886e-06
5.15902e-05
-1.63983e-06
1.50895e-06
4.76412e-05
-1.82849e-06
-1.82854e-06
1.14427e-06
5.15902e-05
-1.63926e-06
7.65873e-07
5.45991e-05
-1.52375e-06
3.84356e-07
5.66278e-05
-1.45593e-06
2.3762e-10
5.76494e-05
-1.42058e-06
-3.83883e-07
5.76494e-05
-1.42063e-06
-7.65487e-07
5.66278e-05
-1.45614e-06
-1.14405e-06
5.45991e-05
-1.52408e-06
-1.50896e-06
5.15902e-05
-1.63967e-06
4.76412e-05
-1.82889e-06
-1.82873e-06
2.14662e-06
2.1445e-06
4.83336e-05
-2.49276e-06
-2.48994e-06
1.54566e-06
1.86037e-06
5.23371e-05
-2.00638e-06
1.04098e-06
1.76452e-06
5.53881e-05
-2.04922e-06
5.25313e-07
1.71439e-06
5.74459e-05
-2.0172e-06
1.63738e-10
1.68886e-06
5.8482e-05
-1.99672e-06
-5.25082e-07
1.68899e-06
5.8482e-05
-1.99692e-06
-1.04091e-06
1.71499e-06
5.7446e-05
-2.01782e-06
-1.54576e-06
1.76543e-06
5.53883e-05
-2.0502e-06
-2.14478e-06
1.86062e-06
5.23373e-05
-2.00963e-06
2.1443e-06
4.83341e-05
-2.49141e-06
-2.49121e-06
1.86255e-06
1.54465e-06
5.23372e-05
-2.00921e-06
1.46273e-06
1.46133e-06
5.60287e-05
1.00019e-06
1.39099e-06
5.88433e-05
5.08182e-07
1.3459e-06
6.07418e-05
2.51263e-10
1.32379e-06
6.16981e-05
-5.07533e-07
1.32391e-06
6.16982e-05
-9.9932e-07
1.34611e-06
6.07419e-05
-1.46133e-06
1.39103e-06
5.88435e-05
-1.86102e-06
1.46104e-06
5.60289e-05
1.54549e-06
5.23374e-05
-2.00984e-06
1.76629e-06
1.04075e-06
5.53882e-05
-2.05088e-06
1.3924e-06
9.99451e-07
5.88434e-05
9.57574e-07
9.56576e-07
6.14793e-05
4.87633e-07
9.25532e-07
6.32576e-05
3.88593e-10
9.1018e-07
6.41535e-05
-4.86835e-07
9.10167e-07
6.41535e-05
-9.56639e-07
9.25523e-07
6.32576e-05
-1.39135e-06
9.56469e-07
6.14794e-05
-1.76581e-06
9.99151e-07
5.88435e-05
1.04072e-06
5.53884e-05
-2.05051e-06
1.71568e-06
5.25399e-07
5.74459e-05
-2.01832e-06
1.34707e-06
5.07793e-07
6.07419e-05
9.26529e-07
4.87065e-07
6.32576e-05
4.71869e-07
4.71172e-07
6.49555e-05
3.81065e-10
4.63276e-07
6.5811e-05
-4.71056e-07
4.63271e-07
6.5811e-05
-9.25711e-07
4.71085e-07
6.49556e-05
-1.34647e-06
4.86838e-07
6.32577e-05
-1.71541e-06
5.07552e-07
6.0742e-05
5.25043e-07
5.74461e-05
-2.01819e-06
1.68974e-06
4.6593e-10
5.84821e-05
-1.99728e-06
1.3248e-06
2.60942e-10
6.16982e-05
9.11055e-07
9.04194e-11
6.41535e-05
4.63973e-07
-2.70421e-12
6.5811e-05
3.74595e-10
-7.87924e-11
6.66463e-05
-4.63248e-07
-1.19908e-10
6.66463e-05
-9.10402e-07
-1.27754e-10
6.58111e-05
-1.32429e-06
-1.15954e-10
6.41536e-05
-1.68953e-06
-9.38473e-11
6.16983e-05
-8.17089e-11
5.84822e-05
-1.99744e-06
1.68964e-06
-5.24661e-07
5.84821e-05
-1.99725e-06
1.32465e-06
-5.07387e-07
6.16982e-05
9.10964e-07
-4.86822e-07
6.41535e-05
4.63898e-07
-4.71211e-07
6.58111e-05
3.31406e-10
-4.63458e-07
6.66464e-05
-4.63262e-07
-4.63505e-07
6.66464e-05
-9.10404e-07
-4.71333e-07
6.58111e-05
-1.32429e-06
-4.8707e-07
6.41536e-05
-1.68954e-06
-5.07754e-07
6.16983e-05
-5.25175e-07
5.84822e-05
-1.99746e-06
1.71541e-06
-1.04038e-06
5.7446e-05
-2.0179e-06
1.34673e-06
-9.98991e-07
6.07419e-05
9.26158e-07
-9.56452e-07
6.32577e-05
4.71653e-07
-9.25634e-07
6.49556e-05
2.83511e-10
-9.10399e-07
6.58111e-05
-4.71093e-07
-9.10426e-07
6.58111e-05
-9.25722e-07
-9.25771e-07
6.49556e-05
-1.34648e-06
-9.56686e-07
6.32577e-05
-1.71541e-06
-9.99333e-07
6.0742e-05
-1.04089e-06
5.74461e-05
-2.01824e-06
1.7657e-06
-1.54528e-06
5.53883e-05
-2.05022e-06
1.39154e-06
-1.46087e-06
5.88435e-05
9.56999e-07
-1.39104e-06
6.14794e-05
4.87328e-07
-1.34619e-06
6.32577e-05
2.61182e-10
-1.32408e-06
6.41536e-05
-4.86867e-07
-1.32414e-06
6.41536e-05
-9.56642e-07
-1.34632e-06
6.32577e-05
-1.39136e-06
-1.39123e-06
6.14794e-05
-1.76584e-06
-1.4612e-06
5.88436e-05
-1.54564e-06
5.53884e-05
-2.05056e-06
1.86093e-06
-2.14427e-06
5.23373e-05
-2.00952e-06
1.46144e-06
-1.86055e-06
5.60288e-05
9.99652e-07
-1.76532e-06
5.88435e-05
5.07964e-07
-1.71498e-06
6.0742e-05
2.13686e-10
-1.68913e-06
6.16983e-05
-5.07565e-07
-1.68918e-06
6.16983e-05
-9.99327e-07
-1.71511e-06
6.0742e-05
-1.46133e-06
-1.76554e-06
5.88436e-05
-1.86106e-06
-1.86077e-06
5.6029e-05
-2.14449e-06
5.23375e-05
-2.00991e-06
2.14466e-06
4.83341e-05
-2.49118e-06
-2.49112e-06
1.54595e-06
5.23373e-05
-2.00929e-06
1.04118e-06
5.53883e-05
-2.04996e-06
5.25397e-07
5.74461e-05
-2.01762e-06
1.75105e-10
5.84822e-05
-1.99691e-06
-5.25072e-07
5.84822e-05
-1.99695e-06
-1.04091e-06
5.74461e-05
-2.01777e-06
-1.54579e-06
5.53884e-05
-2.05017e-06
-2.14475e-06
5.23374e-05
-2.00953e-06
4.83342e-05
-2.49141e-06
-2.49112e-06
1.62773e-06
1.62702e-06
4.88851e-05
-1.90481e-06
-1.90253e-06
1.15217e-06
1.40786e-06
5.29255e-05
-1.52175e-06
7.76799e-07
1.37546e-06
5.60057e-05
-1.61828e-06
3.88397e-07
1.33948e-06
5.80829e-05
-1.58867e-06
3.20607e-10
1.32339e-06
5.91284e-05
-1.58215e-06
-3.87783e-07
1.32337e-06
5.91285e-05
-1.58209e-06
-7.7639e-07
1.33953e-06
5.80832e-05
-1.58853e-06
-1.15254e-06
1.37575e-06
5.60062e-05
-1.6177e-06
-1.628e-06
1.40801e-06
5.29263e-05
-1.52237e-06
1.62783e-06
4.88863e-05
-1.90428e-06
-1.9042e-06
1.4087e-06
1.15157e-06
5.29256e-05
-1.52254e-06
1.09738e-06
1.09662e-06
5.66507e-05
7.57389e-07
1.06694e-06
5.94913e-05
3.85442e-07
1.04535e-06
6.14075e-05
3.14514e-10
1.03394e-06
6.23724e-05
-3.84802e-07
1.03394e-06
6.23725e-05
-7.56741e-07
1.04539e-06
6.14078e-05
-1.09669e-06
1.06709e-06
5.94918e-05
-1.4081e-06
1.0967e-06
5.66515e-05
1.15268e-06
5.29264e-05
-1.52244e-06
1.3762e-06
7.76229e-07
5.60058e-05
-1.61873e-06
1.06771e-06
7.567e-07
5.94914e-05
7.31488e-07
7.30777e-07
6.21513e-05
3.72091e-07
7.15798e-07
6.39462e-05
3.19166e-10
7.08662e-07
6.48502e-05
-3.71468e-07
7.08674e-07
6.48503e-05
-7.30892e-07
7.15868e-07
6.39464e-05
-1.06713e-06
7.30926e-07
6.21517e-05
-1.37582e-06
7.56848e-07
5.94919e-05
7.766e-07
5.60064e-05
-1.61785e-06
1.34021e-06
3.87877e-07
5.8083e-05
-1.58918e-06
1.0461e-06
3.84846e-07
6.14076e-05
7.16498e-07
3.7147e-07
6.39462e-05
3.64085e-07
3.63466e-07
6.566e-05
3.01976e-10
3.59866e-07
6.65234e-05
-3.63471e-07
3.59895e-07
6.65235e-05
-7.15858e-07
3.63543e-07
6.56602e-05
-1.04542e-06
3.71575e-07
6.39465e-05
-1.33957e-06
3.84972e-07
6.1408e-05
3.88083e-07
5.80835e-05
-1.58849e-06
1.32409e-06
-2.44068e-10
5.91285e-05
-1.58262e-06
1.03469e-06
-2.23751e-10
6.23725e-05
7.09361e-07
-2.16421e-10
6.48503e-05
3.60479e-07
-2.20482e-10
6.65234e-05
3.14771e-10
-2.07833e-10
6.73664e-05
-3.59839e-07
-1.84981e-10
6.73665e-05
-7.08663e-07
-1.58263e-10
6.65236e-05
-1.03394e-06
-1.31865e-10
6.48506e-05
-1.32335e-06
-9.70045e-11
6.23728e-05
-6.49114e-11
5.91289e-05
-1.58195e-06
1.32412e-06
-3.88378e-07
5.91286e-05
-1.58261e-06
1.0347e-06
-3.85305e-07
6.23726e-05
7.09382e-07
-3.71937e-07
6.48504e-05
3.60502e-07
-3.63927e-07
6.65235e-05
3.32373e-10
-3.60274e-07
6.73665e-05
-3.5982e-07
-3.60249e-07
6.73665e-05
-7.08649e-07
-3.6385e-07
6.65236e-05
-1.03393e-06
-3.71828e-07
6.48506e-05
-1.32335e-06
-3.85177e-07
6.23729e-05
-3.88194e-07
5.91289e-05
-1.58196e-06
1.34035e-06
-7.76952e-07
5.80833e-05
-1.58919e-06
1.04618e-06
-7.57222e-07
6.14079e-05
7.16585e-07
-7.31305e-07
6.39465e-05
3.64162e-07
-7.16241e-07
6.56603e-05
3.59608e-10
-7.09024e-07
6.65236e-05
-3.63424e-07
-7.08983e-07
6.65236e-05
-7.15814e-07
-7.16137e-07
6.56603e-05
-1.0454e-06
-7.31153e-07
6.39467e-05
-1.33954e-06
-7.57008e-07
6.14081e-05
-7.76753e-07
5.80836e-05
-1.58851e-06
1.37665e-06
-1.15306e-06
5.60064e-05
-1.61862e-06
1.06794e-06
-1.09709e-06
5.9492e-05
7.31659e-07
-1.0675e-06
6.21518e-05
3.72214e-07
-1.04573e-06
6.39466e-05
4.08579e-10
-1.03421e-06
6.48506e-05
-3.71394e-07
-1.03416e-06
6.48506e-05
-7.30831e-07
-1.04559e-06
6.39467e-05
-1.06709e-06
-1.06725e-06
6.21519e-05
-1.37585e-06
-1.09686e-06
5.94921e-05
-1.1528e-06
5.60066e-05
-1.61784e-06
1.40902e-06
-1.62834e-06
5.29265e-05
-1.52332e-06
1.09757e-06
-1.40847e-06
5.66516e-05
7.57647e-07
-1.37612e-06
5.94921e-05
3.85644e-07
-1.3398e-06
6.14081e-05
4.81039e-10
-1.32353e-06
6.23729e-05
-3.84704e-07
-1.32347e-06
6.23729e-05
-7.56673e-07
-1.33961e-06
6.14081e-05
-1.0967e-06
-1.37584e-06
5.94921e-05
-1.40815e-06
-1.40811e-06
5.66517e-05
-1.62801e-06
5.29266e-05
-1.52255e-06
1.62889e-06
4.88865e-05
-1.90472e-06
-1.905e-06
1.15363e-06
5.29266e-05
-1.52272e-06
7.77469e-07
5.60066e-05
-1.61803e-06
3.88815e-07
5.80836e-05
-1.58863e-06
5.71238e-10
5.91289e-05
-1.58206e-06
-3.87674e-07
5.91289e-05
-1.58197e-06
-7.76352e-07
5.80836e-05
-1.58842e-06
-1.15261e-06
5.60065e-05
-1.61771e-06
-1.62803e-06
5.29265e-05
-1.52229e-06
4.88865e-05
-1.90442e-06
-1.90413e-06
1.13277e-06
1.13341e-06
4.92836e-05
-1.33171e-06
-1.3308e-06
8.19679e-07
1.01787e-06
5.3356e-05
-1.13368e-06
5.57569e-07
1.02734e-06
5.64609e-05
-1.21883e-06
2.77573e-07
1.00179e-06
5.85546e-05
-1.19196e-06
1.3324e-09
9.96521e-07
5.96084e-05
-1.19881e-06
-2.74913e-07
9.96333e-07
5.96084e-05
-1.1986e-06
-5.54897e-07
1.00129e-06
5.85548e-05
-1.19152e-06
-8.17402e-07
1.02679e-06
5.64613e-05
-1.21774e-06
-1.13031e-06
1.01681e-06
5.33566e-05
-1.13262e-06
1.13241e-06
4.92845e-05
-1.32938e-06
-1.33007e-06
1.017e-06
8.19937e-07
5.33561e-05
-1.13257e-06
7.88257e-07
7.88662e-07
5.711e-05
5.49544e-07
7.86551e-07
5.99721e-05
2.79704e-07
7.77729e-07
6.19026e-05
1.20406e-09
7.73905e-07
6.28745e-05
-2.77272e-07
7.73765e-07
6.28746e-05
-5.4717e-07
7.77305e-07
6.19028e-05
-7.85912e-07
7.86049e-07
5.99724e-05
-1.01482e-06
7.87903e-07
5.71106e-05
8.1962e-07
5.33567e-05
-1.13153e-06
1.02665e-06
5.57645e-07
5.64611e-05
-1.21806e-06
7.86122e-07
5.4969e-07
5.99721e-05
5.36944e-07
5.37119e-07
6.26509e-05
2.72427e-07
5.30981e-07
6.44584e-05
1.08025e-09
5.27684e-07
6.53687e-05
-2.70333e-07
5.27558e-07
6.53688e-05
-5.34963e-07
5.307e-07
6.44586e-05
-7.84195e-07
5.3678e-07
6.26512e-05
-1.02495e-06
5.49101e-07
5.99725e-05
5.57083e-07
5.64615e-05
-1.21671e-06
1.00134e-06
2.7734e-07
5.85548e-05
-1.1915e-06
7.77352e-07
2.79571e-07
6.19027e-05
5.30807e-07
2.72438e-07
6.44585e-05
2.69485e-07
2.69491e-07
6.61837e-05
9.36605e-10
2.67719e-07
6.70527e-05
-2.67598e-07
2.67649e-07
6.70527e-05
-5.28927e-07
2.69222e-07
6.61838e-05
-7.75476e-07
2.72005e-07
6.44587e-05
-9.99392e-07
2.79121e-07
6.1903e-05
2.76978e-07
5.85551e-05
-1.19021e-06
9.96231e-07
9.74143e-10
5.96086e-05
-1.19855e-06
7.73699e-07
1.02293e-09
6.28747e-05
5.27519e-07
8.95475e-10
6.53688e-05
2.67717e-07
8.26802e-10
6.70527e-05
8.66923e-10
7.35347e-10
6.7901e-05
-2.66035e-07
6.15666e-10
6.79011e-05
-5.25775e-07
5.71915e-10
6.70528e-05
-7.71817e-07
5.21585e-10
6.5369e-05
-9.9434e-07
4.77268e-10
6.28749e-05
5.51089e-10
5.96088e-05
-1.19711e-06
9.96224e-07
-2.75361e-07
5.96086e-05
-1.19868e-06
7.73559e-07
-2.77601e-07
6.28747e-05
5.27466e-07
-2.70526e-07
6.53689e-05
2.67631e-07
-2.67818e-07
6.70528e-05
7.46125e-10
-2.66224e-07
6.79011e-05
-2.66078e-07
-2.66299e-07
6.79011e-05
-5.25829e-07
-2.68108e-07
6.70528e-05
-7.71872e-07
-2.71002e-07
6.5369e-05
-9.94307e-07
-2.78086e-07
6.28749e-05
-2.75923e-07
5.96088e-05
-1.19707e-06
1.00126e-06
-5.5523e-07
5.8555e-05
-1.1917e-06
7.77209e-07
-5.47401e-07
6.19029e-05
5.30569e-07
-5.3516e-07
6.44587e-05
2.69226e-07
-5.29078e-07
6.61838e-05
6.7154e-10
-5.25964e-07
6.70528e-05
-2.67885e-07
-5.26106e-07
6.70529e-05
-5.29109e-07
-5.29415e-07
6.61839e-05
-7.75529e-07
-5.35662e-07
6.44588e-05
-9.99403e-07
-5.48131e-07
6.1903e-05
-5.5606e-07
5.85551e-05
-1.19006e-06
1.0268e-06
-8.17596e-07
5.64614e-05
-1.21815e-06
7.85929e-07
-7.85987e-07
5.99725e-05
5.36653e-07
-7.84204e-07
6.26513e-05
2.71955e-07
-7.75467e-07
6.44588e-05
5.2703e-10
-7.71939e-07
6.5369e-05
-2.70804e-07
-7.72067e-07
6.5369e-05
-5.35347e-07
-7.75937e-07
6.44588e-05
-7.84448e-07
-7.84935e-07
6.26514e-05
-1.02498e-06
-7.86919e-07
5.99726e-05
-8.18781e-07
5.64616e-05
-1.21649e-06
1.01681e-06
-1.13025e-06
5.33567e-05
-1.13285e-06
7.87745e-07
-1.01464e-06
5.71106e-05
5.48938e-07
-1.0247e-06
5.99726e-05
2.78911e-07
-9.9927e-07
6.1903e-05
3.94567e-10
-9.94345e-07
6.28749e-05
-2.78106e-07
-9.94567e-07
6.28749e-05
-5.47881e-07
-9.99881e-07
6.1903e-05
-7.86419e-07
-1.02571e-06
5.99726e-05
-1.01515e-06
-1.016e-06
5.71107e-05
-1.1318e-06
5.33568e-05
-1.13146e-06
1.13251e-06
4.92846e-05
-1.32893e-06
-1.33054e-06
8.19436e-07
5.33568e-05
-1.13101e-06
5.56734e-07
5.64615e-05
-1.21622e-06
2.76583e-07
5.85551e-05
-1.18994e-06
1.49708e-10
5.96088e-05
-1.19709e-06
-2.76179e-07
5.96088e-05
-1.19732e-06
-5.56042e-07
5.85551e-05
-1.1907e-06
-8.1835e-07
5.64615e-05
-1.21753e-06
-1.13087e-06
5.33568e-05
-1.13264e-06
4.92846e-05
-1.32959e-06
-1.33046e-06
7.7848e-07
7.8114e-07
4.9552e-05
-9.11509e-07
-9.14346e-07
5.89288e-07
7.30933e-07
5.36509e-05
-8.34488e-07
4.045e-07
7.49373e-07
5.67764e-05
-8.78311e-07
2.01597e-07
7.29261e-07
5.88843e-05
-8.54273e-07
1.66134e-09
7.30998e-07
5.99453e-05
-8.663e-07
-1.98169e-07
7.30764e-07
5.99453e-05
-8.6597e-07
-4.0084e-07
7.28444e-07
5.88844e-05
-8.53493e-07
-5.8562e-07
7.48224e-07
5.67767e-05
-8.76878e-07
-7.74182e-07
7.28845e-07
5.36513e-05
-8.32415e-07
7.78345e-07
4.95527e-05
-9.08622e-07
-9.10611e-07
7.27781e-07
5.90745e-07
5.36509e-05
-8.3053e-07
5.68824e-07
5.70694e-07
5.74307e-05
4.00493e-07
5.78215e-07
6.03129e-05
2.03881e-07
5.72474e-07
6.22573e-05
1.49651e-09
5.72859e-07
6.32362e-05
-2.00827e-07
5.72653e-07
6.32363e-05
-3.97394e-07
5.71812e-07
6.22574e-05
-5.65666e-07
5.77278e-07
6.03131e-05
-7.24968e-07
5.69233e-07
5.7431e-05
5.8955e-07
5.36513e-05
-8.29681e-07
7.46802e-07
4.05373e-07
5.67765e-05
-8.75551e-07
5.76405e-07
4.01574e-07
6.03129e-05
3.97124e-07
3.98234e-07
6.30113e-05
2.01678e-07
3.95157e-07
6.48323e-05
1.28228e-09
3.93584e-07
6.57495e-05
-1.99123e-07
3.93409e-07
6.57495e-05
-3.94587e-07
3.94695e-07
6.48324e-05
-5.73893e-07
3.97571e-07
6.30115e-05
-7.4455e-07
4.00554e-07
6.03131e-05
4.04453e-07
5.67767e-05
-8.73924e-07
7.2704e-07
2.01702e-07
5.88843e-05
-8.5172e-07
5.70803e-07
2.0422e-07
6.22573e-05
3.94092e-07
2.02212e-07
6.48323e-05
2.01326e-07
2.01855e-07
6.65707e-05
1.11016e-09
2.01001e-07
6.74464e-05
-1.99065e-07
2.00892e-07
6.74464e-05
-3.91775e-07
2.01456e-07
6.65708e-05
-5.68448e-07
2.01586e-07
6.48325e-05
-7.24621e-07
2.03528e-07
6.22574e-05
2.01183e-07
5.88845e-05
-8.5003e-07
7.29053e-07
1.22942e-09
5.99454e-05
-8.64063e-07
5.71416e-07
1.36075e-09
6.32363e-05
3.92562e-07
1.23153e-09
6.57495e-05
2.00492e-07
1.17654e-09
6.74464e-05
1.02098e-09
1.07922e-09
6.83013e-05
-1.98504e-07
9.32322e-10
6.83014e-05
-3.90475e-07
8.82783e-10
6.74465e-05
-5.69168e-07
8.05908e-10
6.57496e-05
-7.26804e-07
7.05871e-10
6.32364e-05
7.46796e-10
5.99454e-05
-8.62234e-07
7.29088e-07
-1.99224e-07
5.99454e-05
-8.64217e-07
5.71286e-07
-2.01528e-07
6.32363e-05
3.92509e-07
-1.99535e-07
6.57496e-05
2.00392e-07
-1.99427e-07
6.74465e-05
8.76912e-10
-1.98781e-07
6.83014e-05
-1.9855e-07
-1.98838e-07
6.83014e-05
-3.90555e-07
-1.99705e-07
6.74465e-05
-5.69273e-07
-1.99996e-07
6.57496e-05
-7.26801e-07
-2.01955e-07
6.32364e-05
-1.99739e-07
5.99454e-05
-8.62247e-07
7.27023e-07
-4.02211e-07
5.88845e-05
-8.5203e-07
5.70669e-07
-3.98326e-07
6.22575e-05
3.93823e-07
-3.95325e-07
6.48325e-05
2.01035e-07
-3.92331e-07
6.65708e-05
8.17646e-10
-3.90995e-07
6.74465e-05
-1.99411e-07
-3.91133e-07
6.74465e-05
-3.92035e-07
-3.92604e-07
6.65708e-05
-5.686e-07
-3.95726e-07
6.48325e-05
-7.24803e-07
-3.98995e-07
6.22575e-05
-4.02901e-07
5.88845e-05
-8.50049e-07
7.4711e-07
-5.87053e-07
5.67768e-05
-8.76027e-07
5.76246e-07
-5.66729e-07
6.03132e-05
3.96831e-07
-5.74634e-07
6.30116e-05
2.01179e-07
-5.69062e-07
6.48325e-05
6.74461e-10
-5.69827e-07
6.57497e-05
-1.99684e-07
-5.69909e-07
6.57497e-05
-3.95139e-07
-5.69463e-07
6.48326e-05
-5.74376e-07
-5.75288e-07
6.30116e-05
-7.44809e-07
-5.67474e-07
6.03132e-05
-5.88146e-07
5.67768e-05
-8.74004e-07
7.27872e-07
-7.75532e-07
5.36514e-05
-8.31736e-07
5.6837e-07
-7.25907e-07
5.74311e-05
3.99875e-07
-7.45238e-07
6.03132e-05
2.03036e-07
-7.25336e-07
6.22575e-05
5.82788e-10
-7.27535e-07
6.32365e-05
-2.01868e-07
-7.27735e-07
6.32365e-05
-3.98408e-07
-7.25843e-07
6.22575e-05
-5.66532e-07
-7.461e-07
6.03132e-05
-7.25764e-07
-7.27132e-07
5.74311e-05
-7.76921e-07
5.36514e-05
-8.30001e-07
7.77641e-07
4.95528e-05
-9.09142e-07
-9.10564e-07
5.88768e-07
5.36514e-05
-8.30358e-07
4.03663e-07
5.67768e-05
-8.74524e-07
2.00602e-07
5.88845e-05
-8.50791e-07
3.52427e-10
5.99455e-05
-8.63129e-07
-1.99759e-07
5.99455e-05
-8.63319e-07
-4.0249e-07
5.88846e-05
-8.51406e-07
-5.87153e-07
5.67768e-05
-8.75643e-07
-7.75431e-07
5.36514e-05
-8.31695e-07
4.95528e-05
-9.09269e-07
-9.10529e-07
6.1691e-07
6.19471e-07
4.97666e-05
-7.22706e-07
-7.26028e-07
4.87213e-07
5.88683e-07
5.38854e-05
-6.91548e-07
3.34229e-07
5.92272e-07
5.70265e-05
-6.87501e-07
1.67184e-07
5.6889e-07
5.91447e-05
-6.60532e-07
1.01304e-09
5.6983e-07
6.02111e-05
-6.67797e-07
-1.65187e-07
5.69717e-07
6.02111e-05
-6.67545e-07
-3.3231e-07
5.68389e-07
5.91448e-05
-6.60002e-07
-4.85516e-07
5.91753e-07
5.70267e-05
-6.86744e-07
-6.14551e-07
5.87658e-07
5.38858e-05
-6.9104e-07
6.17903e-07
4.97672e-05
-7.22019e-07
-7.23547e-07
5.86006e-07
4.89108e-07
5.38854e-05
-6.88606e-07
4.60107e-07
4.62008e-07
5.76846e-05
3.22678e-07
4.61699e-07
6.05822e-05
1.6367e-07
4.49311e-07
6.25371e-05
9.25604e-10
4.48551e-07
6.35214e-05
-1.61791e-07
4.48471e-07
6.35214e-05
-3.20896e-07
4.48969e-07
6.25372e-05
-4.58419e-07
4.61301e-07
6.05824e-05
-5.84585e-07
4.61307e-07
5.76849e-05
4.8874e-07
5.38858e-05
-6.88972e-07
5.90054e-07
3.3558e-07
5.70264e-05
-6.85174e-07
4.60009e-07
3.24009e-07
6.05822e-05
3.18574e-07
3.19778e-07
6.32958e-05
1.61409e-07
3.12617e-07
6.51273e-05
7.79527e-10
3.09927e-07
6.60498e-05
-1.59868e-07
3.09835e-07
6.60498e-05
-3.17081e-07
3.12387e-07
6.51274e-05
-4.58539e-07
3.19498e-07
6.32959e-05
-5.88778e-07
3.23448e-07
6.05824e-05
3.35229e-07
5.70266e-05
-6.84421e-07
5.66724e-07
1.67685e-07
5.91447e-05
-6.58044e-07
4.47661e-07
1.64297e-07
6.25371e-05
3.11469e-07
1.62141e-07
6.51273e-05
1.59447e-07
1.60146e-07
6.68762e-05
6.9446e-10
1.58781e-07
6.77572e-05
-1.58022e-07
1.5873e-07
6.77572e-05
-3.10025e-07
1.59922e-07
6.68762e-05
-4.46228e-07
1.61807e-07
6.51274e-05
-5.6527e-07
1.63935e-07
6.25372e-05
1.67559e-07
5.91448e-05
-6.57243e-07
5.67824e-07
9.15521e-10
6.02111e-05
-6.6554e-07
4.47037e-07
1.08606e-09
6.35214e-05
3.08794e-07
9.88928e-10
6.60498e-05
1.58097e-07
9.95791e-10
6.77572e-05
6.65565e-10
9.56963e-10
6.86175e-05
-1.56833e-07
8.63729e-10
6.86175e-05
-3.07498e-07
8.54119e-10
6.77572e-05
-4.45664e-07
8.115e-10
6.60498e-05
-5.6654e-07
7.236e-10
6.35214e-05
7.48767e-10
6.02111e-05
-6.6463e-07
5.67923e-07
-1.65912e-07
6.02111e-05
-6.65679e-07
4.46985e-07
-1.62176e-07
6.35215e-05
3.08791e-07
-1.59989e-07
6.60498e-05
1.58046e-07
-1.58101e-07
6.77573e-05
5.71937e-10
-1.56829e-07
6.86175e-05
-1.56843e-07
-1.56838e-07
6.86175e-05
-3.07544e-07
-1.58225e-07
6.77573e-05
-4.45748e-07
-1.60209e-07
6.60498e-05
-5.66532e-07
-1.6233e-07
6.35215e-05
-1.66097e-07
6.02111e-05
-6.64648e-07
5.6679e-07
-3.33382e-07
5.91449e-05
-6.58352e-07
4.47662e-07
-3.2153e-07
6.25372e-05
3.11358e-07
-3.17519e-07
6.51274e-05
1.59313e-07
-3.10292e-07
6.68763e-05
5.61296e-10
-3.07703e-07
6.77573e-05
-1.58221e-07
-3.07775e-07
6.77573e-05
-3.10185e-07
-3.10386e-07
6.68763e-05
-4.46325e-07
-3.17649e-07
6.51274e-05
-5.65441e-07
-3.21829e-07
6.25372e-05
-3.33616e-07
5.91448e-05
-6.57342e-07
5.90455e-07
-4.86701e-07
5.70267e-05
-6.8566e-07
4.60121e-07
-4.59202e-07
6.05825e-05
3.18606e-07
-4.59029e-07
6.3296e-05
1.61245e-07
-4.46571e-07
6.51275e-05
4.89337e-10
-4.45994e-07
6.60499e-05
-1.60162e-07
-4.46002e-07
6.60499e-05
-3.17423e-07
-4.46726e-07
6.51274e-05
-4.58879e-07
-4.59304e-07
6.3296e-05
-5.88983e-07
-4.59472e-07
6.05824e-05
-4.87145e-07
5.70266e-05
-6.84576e-07
5.86552e-07
-6.15635e-07
5.38859e-05
-6.90217e-07
4.60307e-07
-5.85309e-07
5.76851e-05
3.22669e-07
-5.89277e-07
6.05825e-05
1.63358e-07
-5.65749e-07
6.25373e-05
4.81106e-10
-5.66928e-07
6.35215e-05
-1.62419e-07
-5.67015e-07
6.35215e-05
-3.21562e-07
-5.65911e-07
6.25373e-05
-4.59021e-07
-5.89614e-07
6.05824e-05
-5.85168e-07
-5.8585e-07
5.7685e-05
-6.16263e-07
5.38858e-05
-6.89227e-07
6.16988e-07
4.97673e-05
-7.22335e-07
-7.23278e-07
4.87817e-07
5.38859e-05
-6.89539e-07
3.34422e-07
5.70268e-05
-6.84964e-07
1.67016e-07
5.91449e-05
-6.57837e-07
3.85228e-10
6.02112e-05
-6.65173e-07
-1.66157e-07
6.02112e-05
-6.65223e-07
-3.33421e-07
5.91449e-05
-6.57975e-07
-4.86652e-07
5.70267e-05
-6.85328e-07
-6.1551e-07
5.38858e-05
-6.90038e-07
4.97672e-05
-7.22423e-07
-7.23121e-07
6.05439e-07
6.06568e-07
4.9978e-05
-7.09899e-07
-7.11825e-07
4.85105e-07
5.75099e-07
5.41151e-05
-6.82944e-07
3.31263e-07
5.64265e-07
5.72701e-05
-6.52632e-07
1.66425e-07
5.3863e-07
5.93977e-05
-6.25383e-07
-3.45466e-10
5.36984e-07
6.04688e-05
-6.26617e-07
-1.67186e-07
5.37121e-07
6.04689e-05
-6.26673e-07
-3.3207e-07
5.38808e-07
5.93979e-05
-6.25634e-07
-4.86152e-07
5.64805e-07
5.72705e-05
-6.53069e-07
-6.05832e-07
5.75799e-07
5.41157e-05
-6.84351e-07
6.07141e-07
4.99789e-05
-7.1139e-07
-7.1188e-07
5.74078e-07
4.8644e-07
5.41151e-05
-6.82352e-07
4.51146e-07
4.52338e-07
5.79314e-05
3.12818e-07
4.43504e-07
6.08424e-05
1.58104e-07
4.252e-07
6.28063e-05
-1.91363e-10
4.2251e-07
6.37952e-05
-1.58473e-07
4.22611e-07
6.37952e-05
-3.13271e-07
4.25366e-07
6.28065e-05
-4.51692e-07
4.43928e-07
6.08428e-05
-5.74582e-07
4.52806e-07
5.7932e-05
4.87309e-07
5.41158e-05
-6.83783e-07
5.63246e-07
3.32433e-07
5.72701e-05
-6.51822e-07
4.42447e-07
3.13937e-07
6.08424e-05
3.06453e-07
3.07464e-07
6.35688e-05
1.54823e-07
2.96144e-07
6.5409e-05
-1.72715e-10
2.92406e-07
6.63358e-05
-1.55174e-07
2.92447e-07
6.63359e-05
-3.06839e-07
2.9626e-07
6.54091e-05
-4.42801e-07
3.07764e-07
6.35691e-05
-5.63588e-07
3.14176e-07
6.08428e-05
3.32974e-07
5.72706e-05
-6.52349e-07
5.37434e-07
1.67261e-07
5.93978e-05
-6.24311e-07
4.24059e-07
1.58936e-07
6.28063e-05
2.95132e-07
1.55666e-07
6.5409e-05
1.50592e-07
1.51414e-07
6.71663e-05
-1.13397e-10
1.49545e-07
6.80516e-05
-1.50795e-07
1.49573e-07
6.80517e-05
-2.95333e-07
1.51458e-07
6.71664e-05
-4.24245e-07
1.55793e-07
6.54092e-05
-5.37548e-07
1.59103e-07
6.28066e-05
1.67728e-07
5.93981e-05
-6.24789e-07
5.35801e-07
2.61856e-10
6.04689e-05
-6.25592e-07
4.21392e-07
4.41141e-10
6.37952e-05
2.91376e-07
4.20109e-10
6.63358e-05
1.48722e-07
5.10421e-10
6.80516e-05
-6.96556e-11
5.46297e-10
6.89161e-05
-1.4891e-07
5.32817e-10
6.89162e-05
-2.91572e-07
5.54972e-10
6.80517e-05
-4.2153e-07
5.40921e-10
6.6336e-05
-5.35959e-07
4.89326e-10
6.37954e-05
4.85541e-10
6.04691e-05
-6.25911e-07
5.35957e-07
-1.66875e-07
6.0469e-05
-6.25719e-07
4.21448e-07
-1.58112e-07
6.37953e-05
2.91441e-07
-1.54742e-07
6.63359e-05
1.48739e-07
-1.50376e-07
6.80517e-05
-8.89708e-11
-1.48458e-07
6.89162e-05
-1.4889e-07
-1.48437e-07
6.89162e-05
-2.91582e-07
-1.50374e-07
6.80518e-05
-4.21562e-07
-1.5474e-07
6.6336e-05
-5.35943e-07
-1.58069e-07
6.37954e-05
-1.66802e-07
6.04691e-05
-6.25893e-07
5.37635e-07
-3.3194e-07
5.9398e-05
-6.24629e-07
4.24241e-07
-3.13046e-07
6.28065e-05
2.95238e-07
-3.06583e-07
6.54092e-05
1.50651e-07
-2.95028e-07
6.71665e-05
-6.99401e-11
-2.91242e-07
6.80517e-05
-1.50823e-07
-2.91279e-07
6.80518e-05
-2.95373e-07
-2.95056e-07
6.71665e-05
-4.24278e-07
-3.06623e-07
6.54093e-05
-5.37637e-07
-3.13178e-07
6.28066e-05
-3.32015e-07
5.93981e-05
-6.2485e-07
5.63737e-07
-4.86145e-07
5.72706e-05
-6.52241e-07
4.42856e-07
-4.5155e-07
6.08428e-05
3.06806e-07
-4.4258e-07
6.35691e-05
1.5501e-07
-4.23992e-07
6.54092e-05
-1.09101e-10
-4.21287e-07
6.6336e-05
-1.55176e-07
-4.21317e-07
6.6336e-05
-3.06923e-07
-4.24111e-07
6.54093e-05
-4.4293e-07
-4.42799e-07
6.35692e-05
-5.63669e-07
-4.51771e-07
6.08429e-05
-4.86422e-07
5.72706e-05
-6.52445e-07
5.7484e-07
-6.0581e-07
5.41158e-05
-6.83647e-07
4.51836e-07
-5.74401e-07
5.7932e-05
3.13284e-07
-5.63365e-07
6.08429e-05
1.58307e-07
-5.37369e-07
6.28066e-05
-1.5149e-10
-5.35764e-07
6.37954e-05
-1.5859e-07
-5.35858e-07
6.37954e-05
-3.13482e-07
-5.3758e-07
6.28067e-05
-4.51888e-07
-5.63736e-07
6.08429e-05
-5.74802e-07
-5.74938e-07
5.79321e-05
-6.06338e-07
5.41159e-05
-6.83861e-07
6.063e-07
4.99789e-05
-7.11049e-07
-7.11489e-07
4.86381e-07
5.41158e-05
-6.83521e-07
3.32064e-07
5.72706e-05
-6.52163e-07
1.6691e-07
5.93981e-05
-6.24671e-07
-2.74662e-10
6.04691e-05
-6.25782e-07
-1.67391e-07
6.04692e-05
-6.25909e-07
-3.32415e-07
5.93981e-05
-6.24937e-07
-4.86563e-07
5.72706e-05
-6.52685e-07
-6.06146e-07
5.41159e-05
-6.84243e-07
4.9979e-05
-7.11502e-07
-7.11966e-07
6.41432e-07
6.43256e-07
5.02017e-05
-7.52454e-07
-7.5461e-07
5.11974e-07
6.07597e-07
5.43577e-05
-7.19541e-07
3.49213e-07
5.90204e-07
5.7527e-05
-6.83255e-07
1.76686e-07
5.6514e-07
5.96643e-05
-6.58086e-07
5.91005e-13
5.61671e-07
6.07403e-05
-6.55392e-07
-1.76775e-07
5.61701e-07
6.07404e-05
-6.55268e-07
-3.49405e-07
5.64943e-07
5.96645e-05
-6.57838e-07
-5.12619e-07
5.90028e-07
5.75275e-05
-6.82718e-07
-6.41872e-07
6.07518e-07
5.43584e-05
-7.19631e-07
6.43044e-07
5.02026e-05
-7.53486e-07
-7.54222e-07
6.06191e-07
5.13637e-07
5.43577e-05
-7.18238e-07
4.76555e-07
4.77976e-07
5.81915e-05
3.28375e-07
4.65575e-07
6.1116e-05
1.66383e-07
4.45252e-07
6.30889e-05
8.25686e-12
4.41578e-07
6.40824e-05
-1.66388e-07
4.41587e-07
6.40824e-05
-3.28459e-07
4.45167e-07
6.30891e-05
-4.76763e-07
4.65572e-07
6.11164e-05
-6.06418e-07
4.77841e-07
5.81921e-05
5.13658e-07
5.43584e-05
-7.18994e-07
5.88636e-07
3.50336e-07
5.7527e-05
-6.81498e-07
4.64213e-07
3.29526e-07
6.11159e-05
3.21501e-07
3.22654e-07
6.38551e-05
1.62816e-07
3.09677e-07
6.57039e-05
-6.23402e-11
3.05829e-07
6.66351e-05
-1.62916e-07
3.05844e-07
6.66352e-05
-3.21634e-07
3.09623e-07
6.57041e-05
-4.64404e-07
3.2265e-07
6.38555e-05
-5.88828e-07
3.29419e-07
6.11164e-05
3.503e-07
5.75275e-05
-6.81864e-07
5.63515e-07
1.77437e-07
5.96642e-05
-6.56446e-07
4.43844e-07
1.67237e-07
6.30889e-05
3.08486e-07
1.63706e-07
6.57039e-05
1.57291e-07
1.58222e-07
6.74696e-05
-1.9349e-11
1.56296e-07
6.83591e-05
-1.57335e-07
1.56286e-07
6.83591e-05
-3.0856e-07
1.58188e-07
6.74697e-05
-4.43931e-07
1.63732e-07