/*--------------------------------*- C++ -*----------------------------------*\
| =========                 |                                                 |
| \\      /  F ield         | OpenFOAM: The Open Source CFD Toolbox           |
|  \\    /   O peration     | Version:  2406                                  |
|   \\  /    A nd           | Website:  www.openfoam.com                      |
|    \\/     M anipulation  |                                                 |
\*---------------------------------------------------------------------------*/
FoamFile
{
    version     2.0;
    format      ascii;
    arch        "LSB;label=32;scalar=64";
    class       volScalarField;
    location    "200";
    object      turbulenceProperties:k;
}
// * * * * * * * * * * * * * * * * * * * * * * * * * * * * * * * * * * * * * //

dimensions      [0 2 -2 0 0 0 0];

internalField   nonuniform List<scalar> 
25000
(
3.75916e-05
3.58525e-05
3.28008e-05
3.22405e-05
3.19497e-05
3.19511e-05
3.22487e-05
3.28232e-05
3.58495e-05
3.75358e-05
3.58575e-05
3.47832e-05
3.18169e-05
3.02536e-05
2.94971e-05
2.94987e-05
3.02592e-05
3.1838e-05
3.47954e-05
3.58453e-05
3.27962e-05
3.18285e-05
2.95344e-05
2.81458e-05
2.74706e-05
2.74718e-05
2.81504e-05
2.95375e-05
3.1824e-05
3.28242e-05
3.22361e-05
3.02515e-05
2.81463e-05
2.67815e-05
2.61055e-05
2.61074e-05
2.67845e-05
2.815e-05
3.02605e-05
3.22507e-05
3.19461e-05
2.94941e-05
2.74694e-05
2.61061e-05
2.54298e-05
2.54307e-05
2.61078e-05
2.74744e-05
2.95021e-05
3.19543e-05
3.19486e-05
2.94963e-05
2.74703e-05
2.61058e-05
2.54305e-05
2.54312e-05
2.61082e-05
2.74747e-05
2.95023e-05
3.19544e-05
3.22468e-05
3.02563e-05
2.81472e-05
2.67836e-05
2.61083e-05
2.61089e-05
2.67856e-05
2.81507e-05
3.02612e-05
3.2251e-05
3.28218e-05
3.18214e-05
2.95358e-05
2.81506e-05
2.74737e-05
2.74742e-05
2.81521e-05
2.95388e-05
3.18251e-05
3.28245e-05
3.58429e-05
3.47931e-05
3.18367e-05
3.02598e-05
2.95014e-05
2.95018e-05
3.0261e-05
3.1839e-05
3.47959e-05
3.5844e-05
3.75339e-05
3.58499e-05
3.28234e-05
3.22498e-05
3.19538e-05
3.19541e-05
3.2251e-05
3.28251e-05
3.58512e-05
3.75368e-05
5.1757e-05
5.00874e-05
4.67744e-05
4.60933e-05
4.57069e-05
4.57079e-05
4.60946e-05
4.68335e-05
5.01602e-05
5.16675e-05
5.01085e-05
4.74849e-05
4.55829e-05
4.47659e-05
4.42396e-05
4.42401e-05
4.47717e-05
4.56474e-05
4.7549e-05
5.01379e-05
4.67739e-05
4.56346e-05
4.39639e-05
4.32775e-05
4.29121e-05
4.29139e-05
4.32904e-05
4.3975e-05
4.55922e-05
4.6828e-05
4.60911e-05
4.47672e-05
4.32836e-05
4.24883e-05
4.20821e-05
4.20876e-05
4.24932e-05
4.32842e-05
4.47685e-05
4.60938e-05
4.57047e-05
4.42379e-05
4.29117e-05
4.2086e-05
4.16953e-05
4.16963e-05
4.20845e-05
4.29151e-05
4.42414e-05
4.57092e-05
4.57055e-05
4.42387e-05
4.29127e-05
4.20834e-05
4.16963e-05
4.16969e-05
4.20849e-05
4.29155e-05
4.42419e-05
4.57095e-05
4.60923e-05
4.4767e-05
4.32828e-05
4.2493e-05
4.20889e-05
4.20893e-05
4.24943e-05
4.32851e-05
4.47697e-05
4.60948e-05
4.68283e-05
4.55921e-05
4.39743e-05
4.32908e-05
4.29154e-05
4.29158e-05
4.3292e-05
4.39766e-05
4.55943e-05
4.68295e-05
5.01355e-05
4.75477e-05
4.56453e-05
4.47714e-05
4.42414e-05
4.42417e-05
4.47726e-05
4.56477e-05
4.75498e-05
5.01359e-05
5.16649e-05
5.01584e-05
4.68302e-05
4.60935e-05
4.57092e-05
4.57095e-05
4.60947e-05
4.68328e-05
5.01604e-05
5.16672e-05
4.75247e-05
4.43658e-05
4.24632e-05
4.13558e-05
4.08399e-05
4.08439e-05
4.13558e-05
4.24905e-05
4.44697e-05
4.75563e-05
4.43933e-05
4.15188e-05
4.07272e-05
4.01151e-05
3.96892e-05
3.9692e-05
4.01278e-05
4.08069e-05
4.15511e-05
4.44343e-05
4.24696e-05
4.07991e-05
3.96107e-05
3.89927e-05
3.86073e-05
3.86106e-05
3.90115e-05
3.9628e-05
4.0734e-05
4.24787e-05
4.1358e-05
4.01225e-05
3.90034e-05
3.83443e-05
3.79433e-05
3.79505e-05
3.83498e-05
3.90032e-05
4.01227e-05
4.13537e-05
4.08406e-05
3.96908e-05
3.86097e-05
3.79498e-05
3.76095e-05
3.76104e-05
3.79464e-05
3.86131e-05
3.96951e-05
4.08461e-05
4.08437e-05
3.96931e-05
3.86114e-05
3.79463e-05
3.7611e-05
3.76113e-05
3.79471e-05
3.86135e-05
3.96955e-05
4.08467e-05
4.13545e-05
4.01227e-05
3.90034e-05
3.83513e-05
3.79536e-05
3.79536e-05
3.83515e-05
3.90041e-05
4.01239e-05
4.13555e-05
4.24827e-05
4.07361e-05
3.96297e-05
3.90146e-05
3.8615e-05
3.86148e-05
3.90141e-05
3.96297e-05
4.07361e-05
4.24818e-05
4.44382e-05
4.15531e-05
4.08082e-05
4.01307e-05
3.96965e-05
3.96961e-05
4.01298e-05
4.08079e-05
4.15525e-05
4.4436e-05
4.75529e-05
4.44655e-05
4.24867e-05
4.13554e-05
4.08469e-05
4.08467e-05
4.13551e-05
4.24879e-05
4.44674e-05
4.75538e-05
3.60532e-05
3.20984e-05
3.13001e-05
3.0104e-05
2.96732e-05
2.96805e-05
3.01104e-05
3.13173e-05
3.21564e-05
3.60761e-05
3.21222e-05
2.97383e-05
2.93991e-05
2.87499e-05
2.84227e-05
2.8427e-05
2.87684e-05
2.9478e-05
2.97534e-05
3.21203e-05
3.13145e-05
2.94689e-05
2.84921e-05
2.77702e-05
2.73535e-05
2.73572e-05
2.77885e-05
2.85128e-05
2.94129e-05
3.13056e-05
3.011e-05
2.87616e-05
2.77818e-05
2.71166e-05
2.66996e-05
2.67058e-05
2.71206e-05
2.77814e-05
2.87642e-05
3.01101e-05
2.96767e-05
2.84267e-05
2.73573e-05
2.67058e-05
2.63479e-05
2.63485e-05
2.67024e-05
2.73604e-05
2.84317e-05
2.96843e-05
2.96829e-05
2.84297e-05
2.73586e-05
2.67024e-05
2.63491e-05
2.63493e-05
2.6703e-05
2.73607e-05
2.84317e-05
2.96847e-05
3.01112e-05
2.87633e-05
2.77814e-05
2.71221e-05
2.67089e-05
2.67089e-05
2.71221e-05
2.77818e-05
2.87642e-05
3.01117e-05
3.13102e-05
2.94133e-05
2.85144e-05
2.77918e-05
2.73622e-05
2.7362e-05
2.77911e-05
2.85139e-05
2.94134e-05
3.13088e-05
3.21292e-05
2.97552e-05
2.94809e-05
2.87725e-05
2.84325e-05
2.84321e-05
2.87712e-05
2.94796e-05
2.97548e-05
3.21256e-05
3.60778e-05
3.21522e-05
3.13164e-05
3.01122e-05
2.96847e-05
2.96843e-05
3.01109e-05
3.13157e-05
3.21536e-05
3.60761e-05
2.75336e-05
2.39262e-05
2.33839e-05
2.22558e-05
2.18886e-05
2.1894e-05
2.22603e-05
2.33971e-05
2.39596e-05
2.75081e-05
2.39466e-05
2.19643e-05
2.14993e-05
2.07083e-05
2.04092e-05
2.04117e-05
2.07228e-05
2.15705e-05
2.19787e-05
2.39289e-05
2.33978e-05
2.15602e-05
2.05637e-05
1.96556e-05
1.91991e-05
1.92013e-05
1.96663e-05
2.05786e-05
2.15152e-05
2.33872e-05
2.22569e-05
2.07179e-05
1.9665e-05
1.88619e-05
1.84031e-05
1.84071e-05
1.88613e-05
1.96595e-05
2.07175e-05
2.22597e-05
2.18898e-05
2.04116e-05
1.92018e-05
1.84078e-05
1.79741e-05
1.79741e-05
1.84034e-05
1.92021e-05
2.04126e-05
2.18932e-05
2.18962e-05
2.04136e-05
1.92021e-05
1.84043e-05
1.79747e-05
1.79746e-05
1.84039e-05
1.92025e-05
2.04125e-05
2.18932e-05
2.22618e-05
2.07183e-05
1.96607e-05
1.88631e-05
1.84093e-05
1.84092e-05
1.88626e-05
1.96602e-05
2.07175e-05
2.22603e-05
2.33895e-05
2.15159e-05
2.05811e-05
1.96694e-05
1.92047e-05
1.92045e-05
1.96685e-05
2.058e-05
2.15154e-05
2.33889e-05
2.39351e-05
2.19814e-05
2.15749e-05
2.07266e-05
2.04144e-05
2.04141e-05
2.07252e-05
2.15728e-05
2.19801e-05
2.39331e-05
2.751e-05
2.39585e-05
2.33986e-05
2.22619e-05
2.18938e-05
2.18938e-05
2.2261e-05
2.33974e-05
2.39585e-05
2.75098e-05
2.26069e-05
1.98122e-05
1.92955e-05
1.83644e-05
1.80566e-05
1.80602e-05
1.83691e-05
1.93122e-05
1.98495e-05
2.25717e-05
1.98333e-05
1.83892e-05
1.77722e-05
1.6975e-05
1.66942e-05
1.66957e-05
1.69873e-05
1.78416e-05
1.84156e-05
1.98244e-05
1.93046e-05
1.78276e-05
1.68961e-05
1.59677e-05
1.55404e-05
1.55427e-05
1.59752e-05
1.69062e-05
1.77911e-05
1.9306e-05
1.83633e-05
1.69834e-05
1.59755e-05
1.51426e-05
1.47086e-05
1.47128e-05
1.51424e-05
1.59689e-05
1.69824e-05
1.83712e-05
1.80575e-05
1.66962e-05
1.55423e-05
1.47124e-05
1.4275e-05
1.42757e-05
1.47098e-05
1.55437e-05
1.66972e-05
1.80603e-05
1.80626e-05
1.66976e-05
1.55431e-05
1.47101e-05
1.42762e-05
1.42766e-05
1.47106e-05
1.55444e-05
1.66974e-05
1.80604e-05
1.83717e-05
1.69829e-05
1.59701e-05
1.5144e-05
1.47152e-05
1.47156e-05
1.51445e-05
1.59707e-05
1.69832e-05
1.83719e-05
1.93058e-05
1.77912e-05
1.69088e-05
1.59783e-05
1.55464e-05
1.55467e-05
1.59786e-05
1.6909e-05
1.7792e-05
1.93077e-05
1.98272e-05
1.84178e-05
1.78464e-05
1.69916e-05
1.66991e-05
1.66993e-05
1.69914e-05
1.78454e-05
1.84176e-05
1.98288e-05
2.2576e-05
1.98521e-05
1.93176e-05
1.83735e-05
1.80613e-05
1.80616e-05
1.83729e-05
1.93157e-05
1.98505e-05
2.25764e-05
2.02585e-05
1.83642e-05
1.78587e-05
1.70706e-05
1.67976e-05
1.68005e-05
1.70783e-05
1.78856e-05
1.84182e-05
2.02464e-05
1.839e-05
1.74178e-05
1.67202e-05
1.59853e-05
1.57196e-05
1.57222e-05
1.60005e-05
1.67942e-05
1.74562e-05
1.83949e-05
1.78704e-05
1.67778e-05
1.59654e-05
1.5127e-05
1.47674e-05
1.4772e-05
1.51383e-05
1.59756e-05
1.67431e-05
1.78812e-05
1.70735e-05
1.59968e-05
1.51358e-05
1.43912e-05
1.40356e-05
1.40419e-05
1.43956e-05
1.51325e-05
1.59968e-05
1.70836e-05
1.68012e-05
1.57239e-05
1.47706e-05
1.404e-05
1.368e-05
1.36819e-05
1.40401e-05
1.47752e-05
1.57275e-05
1.68052e-05
1.68044e-05
1.57254e-05
1.47732e-05
1.40397e-05
1.36827e-05
1.36837e-05
1.40414e-05
1.47763e-05
1.57281e-05
1.68056e-05
1.70818e-05
1.59959e-05
1.51334e-05
1.43979e-05
1.40462e-05
1.40469e-05
1.43992e-05
1.51355e-05
1.59985e-05
1.70848e-05
1.78789e-05
1.67427e-05
1.59785e-05
1.51427e-05
1.47785e-05
1.47792e-05
1.5144e-05
1.59804e-05
1.67452e-05
1.78826e-05
1.8395e-05
1.74576e-05
1.67994e-05
1.60068e-05
1.57296e-05
1.57302e-05
1.60079e-05
1.68004e-05
1.74593e-05
1.83988e-05
2.02495e-05
1.84211e-05
1.78923e-05
1.70854e-05
1.68058e-05
1.68064e-05
1.70857e-05
1.78917e-05
1.84203e-05
2.02505e-05
1.94897e-05
1.82811e-05
1.77731e-05
1.70985e-05
1.68438e-05
1.68465e-05
1.71078e-05
1.78042e-05
1.83422e-05
1.94981e-05
1.83097e-05
1.76239e-05
1.69163e-05
1.62627e-05
1.6004e-05
1.60079e-05
1.62813e-05
1.69936e-05
1.76593e-05
1.83167e-05
1.77898e-05
1.69796e-05
1.62621e-05
1.55133e-05
1.52044e-05
1.52113e-05
1.55302e-05
1.62739e-05
1.69382e-05
1.77981e-05
1.71065e-05
1.62776e-05
1.55236e-05
1.48567e-05
1.45564e-05
1.45646e-05
1.4865e-05
1.55232e-05
1.62764e-05
1.71134e-05
1.685e-05
1.60096e-05
1.52084e-05
1.45614e-05
1.42649e-05
1.42674e-05
1.45622e-05
1.52142e-05
1.60143e-05
1.68538e-05
1.68515e-05
1.60111e-05
1.52124e-05
1.45621e-05
1.42682e-05
1.42693e-05
1.45634e-05
1.52151e-05
1.60147e-05
1.68543e-05
1.71116e-05
1.6275e-05
1.55242e-05
1.48673e-05
1.45692e-05
1.45697e-05
1.48682e-05
1.55256e-05
1.62774e-05
1.71145e-05
1.77968e-05
1.69376e-05
1.62767e-05
1.55346e-05
1.52182e-05
1.52186e-05
1.55352e-05
1.62776e-05
1.69391e-05
1.77988e-05
1.83187e-05
1.76613e-05
1.69995e-05
1.62884e-05
1.6017e-05
1.60173e-05
1.62887e-05
1.69995e-05
1.76618e-05
1.83202e-05
1.95026e-05
1.8345e-05
1.78112e-05
1.71162e-05
1.6855e-05
1.68552e-05
1.71164e-05
1.78104e-05
1.83439e-05
1.95026e-05
1.91938e-05
1.83905e-05
1.79085e-05
1.73418e-05
1.71021e-05
1.7104e-05
1.73503e-05
1.79374e-05
1.84436e-05
1.91972e-05
1.84229e-05
1.79077e-05
1.72621e-05
1.66929e-05
1.64413e-05
1.64461e-05
1.67144e-05
1.73429e-05
1.79355e-05
1.84179e-05
1.79309e-05
1.73307e-05
1.66897e-05
1.60146e-05
1.57359e-05
1.57435e-05
1.60349e-05
1.67031e-05
1.7282e-05
1.79297e-05
1.73512e-05
1.67089e-05
1.60255e-05
1.54136e-05
1.51404e-05
1.51487e-05
1.54223e-05
1.60252e-05
1.67056e-05
1.7354e-05
1.71072e-05
1.64457e-05
1.57389e-05
1.51452e-05
1.48848e-05
1.48868e-05
1.51444e-05
1.57432e-05
1.64497e-05
1.71106e-05
1.71072e-05
1.64468e-05
1.57424e-05
1.51447e-05
1.48872e-05
1.48881e-05
1.5145e-05
1.57437e-05
1.64497e-05
1.71108e-05
1.73514e-05
1.6704e-05
1.60258e-05
1.54233e-05
1.51513e-05
1.51516e-05
1.54237e-05
1.60262e-05
1.67053e-05
1.73536e-05
1.79269e-05
1.72802e-05
1.67042e-05
1.60365e-05
1.57468e-05
1.5747e-05
1.60366e-05
1.6704e-05
1.72805e-05
1.79276e-05
1.84177e-05
1.79357e-05
1.73464e-05
1.67181e-05
1.64517e-05
1.64518e-05
1.67181e-05
1.7346e-05
1.7936e-05
1.84183e-05
1.92002e-05
1.84448e-05
1.79427e-05
1.73559e-05
1.71108e-05
1.71108e-05
1.73563e-05
1.79426e-05
1.84452e-05
1.92003e-05
1.88254e-05
1.82566e-05
1.78433e-05
1.73744e-05
1.71504e-05
1.71523e-05
1.73828e-05
1.78716e-05
1.83027e-05
1.88207e-05
1.82903e-05
1.7917e-05
1.73691e-05
1.68737e-05
1.66324e-05
1.66375e-05
1.68968e-05
1.74538e-05
1.7943e-05
1.82783e-05
1.7866e-05
1.74385e-05
1.68674e-05
1.62537e-05
1.59935e-05
1.60002e-05
1.62741e-05
1.68815e-05
1.73871e-05
1.78612e-05
1.73794e-05
1.68864e-05
1.62634e-05
1.56974e-05
1.54378e-05
1.54451e-05
1.57037e-05
1.62608e-05
1.68818e-05
1.7382e-05
1.71511e-05
1.66322e-05
1.59934e-05
1.54414e-05
1.52027e-05
1.52039e-05
1.54383e-05
1.59953e-05
1.6635e-05
1.71545e-05
1.7151e-05
1.66326e-05
1.5995e-05
1.54383e-05
1.52033e-05
1.52041e-05
1.54381e-05
1.59952e-05
1.66349e-05
1.71544e-05
1.73784e-05
1.68801e-05
1.62602e-05
1.57022e-05
1.54442e-05
1.54446e-05
1.57026e-05
1.62602e-05
1.68806e-05
1.738e-05
1.78554e-05
1.73843e-05
1.688e-05
1.62713e-05
1.5998e-05
1.59981e-05
1.62711e-05
1.68788e-05
1.73835e-05
1.78558e-05
1.82728e-05
1.79415e-05
1.7454e-05
1.68952e-05
1.66368e-05
1.66365e-05
1.68944e-05
1.74524e-05
1.79407e-05
1.82741e-05
1.88197e-05
1.83035e-05
1.78745e-05
1.73835e-05
1.71542e-05
1.71539e-05
1.73837e-05
1.78742e-05
1.83042e-05
1.88217e-05
1.83473e-05
1.78967e-05
1.7574e-05
1.7188e-05
1.69806e-05
1.69833e-05
1.71983e-05
1.76057e-05
1.79436e-05
1.83396e-05
1.79327e-05
1.76975e-05
1.7248e-05
1.68106e-05
1.6581e-05
1.65859e-05
1.68348e-05
1.73367e-05
1.77276e-05
1.79223e-05
1.75942e-05
1.73158e-05
1.68068e-05
1.6242e-05
1.59926e-05
1.59978e-05
1.62602e-05
1.68199e-05
1.72647e-05
1.75924e-05
1.7188e-05
1.68202e-05
1.62505e-05
1.57218e-05
1.54685e-05
1.54744e-05
1.57248e-05
1.62446e-05
1.68143e-05
1.71933e-05
1.69778e-05
1.65775e-05
1.59904e-05
1.54712e-05
1.52451e-05
1.52457e-05
1.54664e-05
1.59901e-05
1.65791e-05
1.69819e-05
1.69784e-05
1.65772e-05
1.59895e-05
1.54655e-05
1.52442e-05
1.52452e-05
1.54658e-05
1.59898e-05
1.65791e-05
1.69816e-05
1.71893e-05
1.68125e-05
1.62423e-05
1.57208e-05
1.5471e-05
1.54718e-05
1.57224e-05
1.62433e-05
1.68134e-05
1.7191e-05
1.75843e-05
1.72612e-05
1.68155e-05
1.62536e-05
1.59916e-05
1.5992e-05
1.62545e-05
1.68154e-05
1.72612e-05
1.75855e-05
1.79113e-05
1.77239e-05
1.73324e-05
1.68277e-05
1.65801e-05
1.658e-05
1.68276e-05
1.73314e-05
1.77234e-05
1.79131e-05
1.83359e-05
1.79456e-05
1.76064e-05
1.71947e-05
1.69811e-05
1.69805e-05
1.71944e-05
1.76049e-05
1.79446e-05
1.83369e-05
1.78775e-05
1.74157e-05
1.71777e-05
1.6858e-05
1.66659e-05
1.66682e-05
1.68675e-05
1.72097e-05
1.74624e-05
1.78709e-05
1.74485e-05
1.73435e-05
1.69786e-05
1.65851e-05
1.63658e-05
1.63696e-05
1.66068e-05
1.70652e-05
1.73727e-05
1.74408e-05
1.71916e-05
1.7043e-05
1.65878e-05
1.60612e-05
1.58177e-05
1.58212e-05
1.60757e-05
1.65963e-05
1.69883e-05
1.71904e-05
1.6853e-05
1.65926e-05
1.60697e-05
1.55702e-05
1.53196e-05
1.53244e-05
1.55702e-05
1.60596e-05
1.65826e-05
1.68576e-05
1.66606e-05
1.63615e-05
1.58161e-05
1.53229e-05
1.51038e-05
1.5104e-05
1.5317e-05
1.58137e-05
1.63605e-05
1.66628e-05
1.66616e-05
1.63606e-05
1.58136e-05
1.53162e-05
1.51029e-05
1.51039e-05
1.53166e-05
1.58136e-05
1.63612e-05
1.66628e-05
1.68563e-05
1.65836e-05
1.6058e-05
1.55669e-05
1.53222e-05
1.53229e-05
1.55686e-05
1.60593e-05
1.6584e-05
1.68569e-05
1.71848e-05
1.69884e-05
1.65925e-05
1.60699e-05
1.58162e-05
1.58165e-05
1.60711e-05
1.65931e-05
1.69885e-05
1.71862e-05
1.74285e-05
1.73703e-05
1.7059e-05
1.65988e-05
1.63633e-05
1.63633e-05
1.65991e-05
1.70588e-05
1.73702e-05
1.74313e-05
1.78642e-05
1.74655e-05
1.72074e-05
1.68609e-05
1.66635e-05
1.66628e-05
1.68605e-05
1.72058e-05
1.74633e-05
1.78648e-05
1.7545e-05
1.68964e-05
1.67158e-05
1.6446e-05
1.6269e-05
1.62718e-05
1.64567e-05
1.67497e-05
1.69458e-05
1.75443e-05
1.69259e-05
1.6927e-05
1.66281e-05
1.62684e-05
1.60598e-05
1.60638e-05
1.62906e-05
1.67134e-05
1.69537e-05
1.69195e-05
1.67266e-05
1.66927e-05
1.62834e-05
1.57877e-05
1.55494e-05
1.55532e-05
1.58021e-05
1.62899e-05
1.66345e-05
1.67234e-05
1.6443e-05
1.62804e-05
1.57988e-05
1.53233e-05
1.50759e-05
1.50812e-05
1.53242e-05
1.57881e-05
1.62671e-05
1.64453e-05
1.6267e-05
1.60603e-05
1.5552e-05
1.50814e-05
1.48675e-05
1.48682e-05
1.50763e-05
1.55496e-05
1.60579e-05
1.62674e-05
1.62683e-05
1.60594e-05
1.55497e-05
1.50761e-05
1.48685e-05
1.48692e-05
1.50765e-05
1.55497e-05
1.60587e-05
1.62678e-05
1.64484e-05
1.62708e-05
1.57882e-05
1.53238e-05
1.50833e-05
1.50836e-05
1.53248e-05
1.57887e-05
1.627e-05
1.64475e-05
1.67263e-05
1.6639e-05
1.62887e-05
1.58008e-05
1.55539e-05
1.55539e-05
1.58015e-05
1.62892e-05
1.66383e-05
1.67261e-05
1.69146e-05
1.69537e-05
1.67076e-05
1.62858e-05
1.60625e-05
1.60624e-05
1.62865e-05
1.67084e-05
1.69539e-05
1.69166e-05
1.75393e-05
1.69473e-05
1.67444e-05
1.6451e-05
1.627e-05
1.62694e-05
1.64511e-05
1.67442e-05
1.69463e-05
1.75401e-05
1.74917e-05
1.64283e-05
1.62488e-05
1.6011e-05
1.5847e-05
1.58488e-05
1.60194e-05
1.62788e-05
1.64713e-05
1.74873e-05
1.64541e-05
1.65011e-05
1.62506e-05
1.59188e-05
1.57208e-05
1.57248e-05
1.59408e-05
1.63318e-05
1.65184e-05
1.64375e-05
1.62612e-05
1.63182e-05
1.59482e-05
1.54794e-05
1.5247e-05
1.52518e-05
1.54955e-05
1.59537e-05
1.62544e-05
1.62481e-05
1.60139e-05
1.59375e-05
1.5494e-05
1.50402e-05
1.47974e-05
1.48038e-05
1.50435e-05
1.54846e-05
1.59213e-05
1.601e-05
1.58493e-05
1.57267e-05
1.52543e-05
1.48052e-05
1.45966e-05
1.45979e-05
1.48014e-05
1.52528e-05
1.57236e-05
1.58469e-05
1.58494e-05
1.57253e-05
1.5253e-05
1.48023e-05
1.45998e-05
1.46001e-05
1.48023e-05
1.52529e-05
1.57239e-05
1.58471e-05
1.60158e-05
1.59255e-05
1.54863e-05
1.5047e-05
1.48109e-05
1.48107e-05
1.50466e-05
1.54858e-05
1.59239e-05
1.60133e-05
1.62585e-05
1.62616e-05
1.59563e-05
1.55003e-05
1.52597e-05
1.52591e-05
1.55e-05
1.59559e-05
1.62597e-05
1.62557e-05
1.64424e-05
1.65213e-05
1.63294e-05
1.59422e-05
1.57301e-05
1.57299e-05
1.59427e-05
1.63303e-05
1.65209e-05
1.64418e-05
1.74855e-05
1.64704e-05
1.62722e-05
1.60169e-05
1.58502e-05
1.585e-05
1.60176e-05
1.62734e-05
1.647e-05
1.74855e-05
1.76758e-05
1.6067e-05
1.58087e-05
1.55854e-05
1.54333e-05
1.54347e-05
1.55928e-05
1.5836e-05
1.61038e-05
1.76644e-05
1.60909e-05
1.60891e-05
1.58749e-05
1.5571e-05
1.5386e-05
1.5391e-05
1.55957e-05
1.59568e-05
1.61025e-05
1.60655e-05
1.58264e-05
1.59475e-05
1.5616e-05
1.51745e-05
1.49509e-05
1.49577e-05
1.51954e-05
1.5626e-05
1.58849e-05
1.58075e-05
1.55954e-05
1.55964e-05
1.5192e-05
1.47607e-05
1.45251e-05
1.45331e-05
1.47684e-05
1.51877e-05
1.55829e-05
1.55898e-05
1.54393e-05
1.53957e-05
1.49608e-05
1.45337e-05
1.43315e-05
1.43337e-05
1.45323e-05
1.49625e-05
1.53955e-05
1.54379e-05
1.54383e-05
1.53943e-05
1.49608e-05
1.45331e-05
1.43363e-05
1.43366e-05
1.45338e-05
1.49625e-05
1.53949e-05
1.54377e-05
1.55934e-05
1.55837e-05
1.5189e-05
1.47738e-05
1.45433e-05
1.45429e-05
1.47734e-05
1.51891e-05
1.55836e-05
1.55921e-05
1.58195e-05
1.58904e-05
1.56309e-05
1.5205e-05
1.49708e-05
1.49701e-05
1.52044e-05
1.56307e-05
1.58892e-05
1.58162e-05
1.60782e-05
1.61071e-05
1.59599e-05
1.56044e-05
1.54027e-05
1.54025e-05
1.56047e-05
1.59607e-05
1.61066e-05
1.60755e-05
1.76687e-05
1.61026e-05
1.58335e-05
1.55975e-05
1.54418e-05
1.54417e-05
1.55982e-05
1.58348e-05
1.61028e-05
1.76673e-05
1.76598e-05
1.58758e-05
1.54263e-05
1.51923e-05
1.50484e-05
1.50498e-05
1.52e-05
1.54529e-05
1.59089e-05
1.76439e-05
1.59011e-05
1.57096e-05
1.55181e-05
1.52428e-05
1.50718e-05
1.50774e-05
1.52696e-05
1.56016e-05
1.57226e-05
1.58709e-05
1.54519e-05
1.55949e-05
1.53026e-05
1.48898e-05
1.46761e-05
1.46839e-05
1.49136e-05
1.53166e-05
1.5536e-05
1.54319e-05
1.52076e-05
1.5271e-05
1.49075e-05
1.44997e-05
1.42723e-05
1.42809e-05
1.45093e-05
1.49063e-05
1.52608e-05
1.52033e-05
1.50549e-05
1.50807e-05
1.46842e-05
1.42794e-05
1.40838e-05
1.40861e-05
1.42787e-05
1.46875e-05
1.50828e-05
1.50558e-05
1.50533e-05
1.50789e-05
1.46845e-05
1.42788e-05
1.40878e-05
1.4088e-05
1.42796e-05
1.46873e-05
1.50816e-05
1.50548e-05
1.52014e-05
1.52571e-05
1.49058e-05
1.45135e-05
1.4289e-05
1.42887e-05
1.45135e-05
1.4907e-05
1.52588e-05
1.52024e-05
1.54375e-05
1.55363e-05
1.5321e-05
1.49229e-05
1.46955e-05
1.4695e-05
1.49225e-05
1.53213e-05
1.55364e-05
1.54357e-05
1.58827e-05
1.57255e-05
1.56082e-05
1.5281e-05
1.50893e-05
1.50892e-05
1.52811e-05
1.56088e-05
1.57255e-05
1.58799e-05
1.7651e-05
1.59074e-05
1.54555e-05
1.52093e-05
1.50583e-05
1.50584e-05
1.52098e-05
1.54567e-05
1.59084e-05
1.76495e-05
1.60108e-05
1.58863e-05
1.51281e-05
1.48452e-05
1.46998e-05
1.47017e-05
1.48543e-05
1.51559e-05
1.59185e-05
1.59946e-05
1.59164e-05
1.53723e-05
1.51819e-05
1.49339e-05
1.4776e-05
1.47821e-05
1.49621e-05
1.52672e-05
1.53877e-05
1.58853e-05
1.51601e-05
1.52598e-05
1.50067e-05
1.46228e-05
1.44192e-05
1.44269e-05
1.46471e-05
1.50226e-05
1.52051e-05
1.51423e-05
1.48607e-05
1.496e-05
1.46385e-05
1.42545e-05
1.40352e-05
1.40433e-05
1.42631e-05
1.46372e-05
1.49516e-05
1.4859e-05
1.47034e-05
1.47806e-05
1.44226e-05
1.40393e-05
1.38501e-05
1.38517e-05
1.40373e-05
1.4425e-05
1.47833e-05
1.47059e-05
1.47023e-05
1.4779e-05
1.44222e-05
1.40369e-05
1.38515e-05
1.38516e-05
1.40373e-05
1.44247e-05
1.47822e-05
1.47049e-05
1.4853e-05
1.49459e-05
1.46352e-05
1.42637e-05
1.40458e-05
1.40457e-05
1.42643e-05
1.46368e-05
1.49484e-05
1.48555e-05
1.51387e-05
1.52006e-05
1.50247e-05
1.46518e-05
1.44317e-05
1.44316e-05
1.46519e-05
1.50251e-05
1.52016e-05
1.51389e-05
1.58895e-05
1.53877e-05
1.52741e-05
1.49706e-05
1.47886e-05
1.47885e-05
1.49705e-05
1.5274e-05
1.53878e-05
1.58879e-05
1.60006e-05
1.59171e-05
1.51622e-05
1.48637e-05
1.47073e-05
1.47074e-05
1.48636e-05
1.51625e-05
1.59185e-05
1.59998e-05
1.15872e-05
1.60261e-05
1.49454e-05
1.456e-05
1.43958e-05
1.43981e-05
1.45703e-05
1.49738e-05
1.6058e-05
1.15813e-05
1.60602e-05
1.50944e-05
1.48685e-05
1.4641e-05
1.44933e-05
1.44994e-05
1.46689e-05
1.49529e-05
1.51109e-05
1.60303e-05
1.49782e-05
1.49431e-05
1.47242e-05
1.43676e-05
1.41726e-05
1.41793e-05
1.43899e-05
1.47386e-05
1.48896e-05
1.49625e-05
1.45705e-05
1.4661e-05
1.43797e-05
1.40184e-05
1.38065e-05
1.38133e-05
1.40238e-05
1.4375e-05
1.46513e-05
1.45697e-05
1.43953e-05
1.44926e-05
1.4171e-05
1.38077e-05
1.36243e-05
1.36248e-05
1.38032e-05
1.41703e-05
1.4493e-05
1.43972e-05
1.43957e-05
1.44915e-05
1.41696e-05
1.38031e-05
1.36231e-05
1.3623e-05
1.38023e-05
1.41702e-05
1.4493e-05
1.4397e-05
1.45647e-05
1.46481e-05
1.43734e-05
1.40213e-05
1.38101e-05
1.38102e-05
1.40218e-05
1.43743e-05
1.46493e-05
1.45661e-05
1.49532e-05
1.48842e-05
1.47383e-05
1.43884e-05
1.41762e-05
1.41763e-05
1.43885e-05
1.47379e-05
1.48845e-05
1.49538e-05
1.60258e-05
1.5109e-05
1.49575e-05
1.46709e-05
1.44982e-05
1.44982e-05
1.46701e-05
1.4956e-05
1.51082e-05
1.60248e-05
1.15841e-05
1.60577e-05
1.49808e-05
1.4575e-05
1.43984e-05
1.43982e-05
1.4574e-05
1.49794e-05
1.60578e-05
1.15846e-05
2.52135e-05
1.59332e-05
1.48902e-05
1.43499e-05
1.41444e-05
1.41474e-05
1.4362e-05
1.49203e-05
1.59666e-05
2.52047e-05
1.59708e-05
1.48905e-05
1.45777e-05
1.43577e-05
1.42161e-05
1.42223e-05
1.43857e-05
1.46612e-05
1.49076e-05
1.59439e-05
1.49197e-05
1.4647e-05
1.44491e-05
1.41159e-05
1.3928e-05
1.39338e-05
1.41362e-05
1.44614e-05
1.45933e-05
1.49055e-05
1.43546e-05
1.43722e-05
1.41253e-05
1.37844e-05
1.35788e-05
1.35846e-05
1.37872e-05
1.41174e-05
1.43602e-05
1.43536e-05
1.41421e-05
1.4213e-05
1.3924e-05
1.35789e-05
1.34007e-05
1.34006e-05
1.35728e-05
1.39209e-05
1.42113e-05
1.41431e-05
1.4144e-05
1.42125e-05
1.39219e-05
1.35728e-05
1.33982e-05
1.33983e-05
1.35718e-05
1.39213e-05
1.42126e-05
1.41442e-05
1.43522e-05
1.43605e-05
1.41162e-05
1.37827e-05
1.35786e-05
1.35791e-05
1.37838e-05
1.4117e-05
1.43609e-05
1.43528e-05
1.48956e-05
1.45892e-05
1.44581e-05
1.41293e-05
1.39259e-05
1.39265e-05
1.41302e-05
1.4458e-05
1.45896e-05
1.48967e-05
1.59329e-05
1.49041e-05
1.46603e-05
1.43801e-05
1.4216e-05
1.42162e-05
1.438e-05
1.46593e-05
1.4904e-05
1.59336e-05
2.52047e-05
1.59674e-05
1.49242e-05
1.43604e-05
1.41443e-05
1.41442e-05
1.43594e-05
1.49224e-05
1.59669e-05
2.52091e-05
7.91753e-05
1.47491e-05
1.49237e-05
1.42305e-05
1.39615e-05
1.3964e-05
1.42409e-05
1.49507e-05
1.47751e-05
7.91203e-05
1.47818e-05
1.47635e-05
1.43164e-05
1.40837e-05
1.39427e-05
1.39483e-05
1.41093e-05
1.43954e-05
1.47764e-05
1.47561e-05
1.49432e-05
1.43783e-05
1.41786e-05
1.38642e-05
1.36814e-05
1.36863e-05
1.38818e-05
1.41872e-05
1.43215e-05
1.49265e-05
1.42269e-05
1.40927e-05
1.38721e-05
1.35493e-05
1.33489e-05
1.33541e-05
1.35501e-05
1.38614e-05
1.40778e-05
1.42236e-05
1.39565e-05
1.39385e-05
1.36778e-05
1.33499e-05
1.31769e-05
1.31765e-05
1.33435e-05
1.3674e-05
1.39357e-05
1.39564e-05
1.3958e-05
1.39375e-05
1.36752e-05
1.33439e-05
1.31751e-05
1.31754e-05
1.33433e-05
1.36749e-05
1.39378e-05
1.39582e-05
1.42251e-05
1.40801e-05
1.38604e-05
1.35462e-05
1.33499e-05
1.33507e-05
1.35479e-05
1.38619e-05
1.40813e-05
1.42263e-05
1.49195e-05
1.43195e-05
1.41815e-05
1.3873e-05
1.36791e-05
1.36799e-05
1.38748e-05
1.41828e-05
1.43212e-05
1.49222e-05
1.47411e-05
1.47716e-05
1.43881e-05
1.40984e-05
1.39408e-05
1.39414e-05
1.40996e-05
1.4389e-05
1.47735e-05
1.47458e-05
7.91194e-05
1.47757e-05
1.49473e-05
1.42319e-05
1.39578e-05
1.39581e-05
1.42323e-05
1.49473e-05
1.47755e-05
7.91226e-05
0.000186359
1.19961e-05
1.48572e-05
1.41822e-05
1.38485e-05
1.38504e-05
1.41906e-05
1.48794e-05
1.20157e-05
0.000186247
1.20228e-05
1.467e-05
1.40993e-05
1.38261e-05
1.36806e-05
1.36851e-05
1.38483e-05
1.41715e-05
1.46751e-05
1.19986e-05
1.48689e-05
1.41579e-05
1.39222e-05
1.36204e-05
1.34414e-05
1.34453e-05
1.36345e-05
1.39245e-05
1.40943e-05
1.48471e-05
1.41781e-05
1.38375e-05
1.36307e-05
1.33229e-05
1.31266e-05
1.31309e-05
1.33213e-05
1.36154e-05
1.38165e-05
1.41697e-05
1.38474e-05
1.36824e-05
1.34439e-05
1.31313e-05
1.29622e-05
1.29615e-05
1.31234e-05
1.34368e-05
1.36754e-05
1.38437e-05
1.38473e-05
1.36801e-05
1.34408e-05
1.31262e-05
1.29626e-05
1.29624e-05
1.31242e-05
1.34377e-05
1.36768e-05
1.38451e-05
1.41754e-05
1.38221e-05
1.36173e-05
1.33213e-05
1.31321e-05
1.31323e-05
1.33214e-05
1.36161e-05
1.382e-05
1.41741e-05
1.48491e-05
1.40973e-05
1.39208e-05
1.36291e-05
1.34433e-05
1.34436e-05
1.36295e-05
1.39201e-05
1.4096e-05
1.48486e-05
1.1993e-05
1.46734e-05
1.4163e-05
1.38385e-05
1.36812e-05
1.36814e-05
1.38388e-05
1.41627e-05
1.46729e-05
1.19949e-05
0.000186248
1.20169e-05
1.48709e-05
1.41796e-05
1.3846e-05
1.38464e-05
1.41805e-05
1.48718e-05
1.20157e-05
0.000186247
0.000364586
1.73143e-05
1.42358e-05
1.41177e-05
1.37756e-05
1.37755e-05
1.41207e-05
1.42468e-05
1.73351e-05
0.000364399
1.73348e-05
1.44521e-05
1.39306e-05
1.3587e-05
1.34315e-05
1.3435e-05
1.36062e-05
1.39964e-05
1.44485e-05
1.72977e-05
1.42418e-05
1.39898e-05
1.36757e-05
1.33807e-05
1.32058e-05
1.3209e-05
1.33925e-05
1.36735e-05
1.39198e-05
1.42131e-05
1.41183e-05
1.36048e-05
1.33954e-05
1.3101e-05
1.29088e-05
1.29128e-05
1.30982e-05
1.33772e-05
1.35786e-05
1.41025e-05
1.37804e-05
1.34409e-05
1.32155e-05
1.29177e-05
1.27527e-05
1.27518e-05
1.2909e-05
1.32062e-05
1.34297e-05
1.37709e-05
1.3778e-05
1.34371e-05
1.32123e-05
1.29143e-05
1.27555e-05
1.27548e-05
1.29107e-05
1.32066e-05
1.34296e-05
1.37704e-05
1.41126e-05
1.35873e-05
1.33826e-05
1.31037e-05
1.29205e-05
1.29199e-05
1.31013e-05
1.33779e-05
1.35803e-05
1.41052e-05
1.42266e-05
1.39297e-05
1.36756e-05
1.33947e-05
1.32151e-05
1.32143e-05
1.33926e-05
1.36714e-05
1.39227e-05
1.4218e-05
1.72989e-05
1.44549e-05
1.39932e-05
1.36033e-05
1.34376e-05
1.34369e-05
1.36012e-05
1.39892e-05
1.44478e-05
1.73031e-05
0.000364398
1.7333e-05
1.42414e-05
1.41143e-05
1.37743e-05
1.37737e-05
1.41125e-05
1.42381e-05
1.73351e-05
0.000364397
0.00062291
4.62844e-05
1.2524e-05
1.37987e-05
1.36311e-05
1.36324e-05
1.38057e-05
1.25394e-05
4.63422e-05
0.000622671
4.63349e-05
1.37899e-05
1.38048e-05
1.33752e-05
1.32059e-05
1.3211e-05
1.33991e-05
1.38763e-05
1.37923e-05
4.62493e-05
1.25301e-05
1.38697e-05
1.34473e-05
1.31524e-05
1.2984e-05
1.29889e-05
1.31685e-05
1.34501e-05
1.38045e-05
1.25132e-05
1.38084e-05
1.34013e-05
1.31706e-05
1.289e-05
1.27047e-05
1.27102e-05
1.28915e-05
1.31578e-05
1.33795e-05
1.3797e-05
1.36401e-05
1.32192e-05
1.29967e-05
1.27149e-05
1.2556e-05
1.25564e-05
1.27098e-05
1.2992e-05
1.32121e-05
1.3634e-05
1.36368e-05
1.32145e-05
1.29936e-05
1.27127e-05
1.25602e-05
1.25602e-05
1.27117e-05
1.29917e-05
1.32106e-05
1.36319e-05
1.38024e-05
1.33826e-05
1.31601e-05
1.2897e-05
1.27205e-05
1.27205e-05
1.28964e-05
1.31586e-05
1.33792e-05
1.37972e-05
1.25267e-05
1.38123e-05
1.34531e-05
1.31743e-05
1.29998e-05
1.29995e-05
1.3174e-05
1.3452e-05
1.38084e-05
1.25208e-05
4.62415e-05
1.37986e-05
1.3876e-05
1.3402e-05
1.32192e-05
1.32191e-05
1.3402e-05
1.38756e-05
1.37959e-05
4.62518e-05
0.000622653
4.63206e-05
1.25365e-05
1.38065e-05
1.36371e-05
1.36364e-05
1.38051e-05
1.25354e-05
4.63332e-05
0.000622664
0.000957443
0.000104966
1.19983e-05
1.28721e-05
1.31793e-05
1.31809e-05
1.28804e-05
1.20192e-05
0.000105067
0.000957186
0.000105076
1.2437e-05
1.36979e-05
1.32007e-05
1.30097e-05
1.30157e-05
1.32272e-05
1.37729e-05
1.24412e-05
0.000104884
1.20153e-05
1.37683e-05
1.32468e-05
1.29387e-05
1.27755e-05
1.27815e-05
1.2958e-05
1.3254e-05
1.37068e-05
1.19947e-05
1.28872e-05
1.32299e-05
1.29571e-05
1.26883e-05
1.25107e-05
1.25173e-05
1.26931e-05
1.2949e-05
1.32122e-05
1.28801e-05
1.31848e-05
1.30192e-05
1.27847e-05
1.25186e-05
1.23663e-05
1.23675e-05
1.25161e-05
1.2784e-05
1.30163e-05
1.31823e-05
1.31796e-05
1.30129e-05
1.27805e-05
1.25153e-05
1.23689e-05
1.23694e-05
1.25163e-05
1.27823e-05
1.30134e-05
1.31784e-05
1.28747e-05
1.32064e-05
1.29448e-05
1.26936e-05
1.25231e-05
1.25236e-05
1.2695e-05
1.29472e-05
1.32079e-05
1.28738e-05
1.19945e-05
1.3705e-05
1.32524e-05
1.29606e-05
1.27884e-05
1.27888e-05
1.29624e-05
1.32555e-05
1.37067e-05
1.19965e-05
0.000104888
1.24377e-05
1.37695e-05
1.32287e-05
1.30203e-05
1.3021e-05
1.32313e-05
1.37744e-05
1.24414e-05
0.000104886
0.000957147
0.00010504
1.20085e-05
1.28795e-05
1.31813e-05
1.31818e-05
1.28819e-05
1.20092e-05
0.000105045
0.000957166
0.00135309
0.000203302
2.363e-05
1.14773e-05
1.21426e-05
1.21446e-05
1.14861e-05
2.36673e-05
0.000203463
0.0013529
0.000203486
1.14557e-05
1.35207e-05
1.30555e-05
1.28423e-05
1.28484e-05
1.30823e-05
1.35955e-05
1.14539e-05
0.000203172
2.36743e-05
1.35933e-05
1.30837e-05
1.27437e-05
1.25826e-05
1.25889e-05
1.27641e-05
1.3093e-05
1.35345e-05
2.36139e-05
1.1496e-05
1.30831e-05
1.27598e-05
1.24994e-05
1.23298e-05
1.23364e-05
1.2505e-05
1.27535e-05
1.30672e-05
1.14893e-05
1.21431e-05
1.28454e-05
1.25856e-05