/*--------------------------------*- C++ -*----------------------------------*\
| =========                 |                                                 |
| \\      /  F ield         | OpenFOAM: The Open Source CFD Toolbox           |
|  \\    /   O peration     | Version:  2406                                  |
|   \\  /    A nd           | Website:  www.openfoam.com                      |
|    \\/     M anipulation  |                                                 |
\*---------------------------------------------------------------------------*/
FoamFile
{
    version     2.0;
    format      ascii;
    arch        "LSB;label=32;scalar=64";
    class       volScalarField;
    location    "200";
    object      turbulenceProperties:I;
}
// * * * * * * * * * * * * * * * * * * * * * * * * * * * * * * * * * * * * * //

dimensions      [0 0 0 0 0 0 0];

internalField   nonuniform List<scalar> 
25000
(
0.0049898
0.0048742
0.004663
0.00462357
0.00460296
0.00460306
0.00462416
0.00466458
0.00487398
0.00498607
0.00487454
0.00480231
0.00459386
0.00448015
0.00442406
0.00442417
0.00448056
0.00459537
0.00480313
0.00487369
0.00466267
0.0045947
0.00442691
0.00432215
0.00427026
0.00427036
0.0043225
0.00442714
0.00459436
0.00466465
0.00462326
0.00447999
0.00432219
0.00421665
0.00416336
0.00416351
0.00421688
0.00432247
0.00448065
0.0046243
0.0046027
0.00442383
0.00427017
0.0041634
0.00410939
0.00410946
0.00416354
0.00427056
0.00442443
0.00460329
0.00460288
0.004424
0.00427024
0.00416339
0.00410945
0.0041095
0.00416357
0.00427058
0.00442444
0.0046033
0.00462402
0.00448034
0.00432226
0.00421682
0.00416358
0.00416363
0.00421697
0.00432253
0.00448071
0.00462432
0.00466448
0.00459417
0.00442701
0.00432251
0.0042705
0.00427054
0.00432263
0.00442723
0.00459444
0.00466467
0.00487353
0.00480298
0.00459528
0.00448061
0.00442437
0.0044244
0.00448069
0.00459544
0.00480316
0.0048736
0.00498595
0.00487401
0.0046646
0.00462424
0.00460325
0.00460327
0.00462432
0.00466472
0.00487409
0.00498613
0.00576447
0.00567588
0.00548869
0.00545109
0.00542945
0.0054295
0.00545115
0.00549213
0.00567993
0.00575937
0.00567707
0.00553214
0.00542427
0.00537811
0.00534774
0.00534776
0.00537844
0.00542807
0.00553583
0.00567867
0.00548867
0.00542734
0.0053313
0.00529231
0.0052713
0.00527141
0.00529308
0.00533195
0.00542478
0.0054918
0.00545096
0.00537819
0.00529268
0.00524668
0.00522295
0.00522328
0.00524697
0.0052927
0.00537824
0.00545109
0.00542932
0.00534763
0.00527128
0.00522319
0.0052003
0.00520036
0.00522309
0.00527148
0.00534783
0.00542957
0.00542936
0.00534768
0.00527134
0.00522302
0.00520036
0.00520039
0.00522311
0.0052715
0.00534785
0.00542959
0.00545101
0.00537816
0.00529262
0.00524695
0.00522336
0.00522338
0.00524703
0.00529275
0.00537832
0.00545115
0.00549182
0.00542478
0.00533191
0.00529311
0.00527149
0.00527152
0.00529317
0.00533204
0.0054249
0.00549189
0.00567853
0.00553575
0.00542794
0.00537842
0.00534782
0.00534784
0.00537849
0.00542808
0.00553586
0.00567855
0.00575922
0.00567982
0.00549193
0.00545107
0.00542957
0.00542958
0.00545114
0.00549208
0.00567994
0.00575934
0.00543829
0.00526012
0.00515023
0.00508536
0.0050549
0.00505515
0.00508533
0.00515185
0.00526621
0.00543998
0.00526174
0.00509466
0.00505041
0.00501536
0.00499019
0.00499035
0.00501614
0.00505532
0.00509659
0.00526411
0.00515061
0.00505487
0.00498554
0.00494974
0.00492682
0.00492703
0.00495091
0.0049866
0.0050508
0.00515112
0.00508549
0.00501583
0.00495041
0.00491175
0.00488766
0.00488812
0.00491209
0.00495038
0.00501581
0.00508519
0.00505494
0.00499028
0.00492697
0.00488808
0.0048678
0.00486785
0.00488785
0.00492718
0.00499053
0.00505526
0.00505513
0.00499042
0.00492707
0.00488785
0.00486789
0.00486791
0.00488789
0.0049272
0.00499055
0.00505529
0.00508525
0.00501582
0.00495039
0.00491218
0.00488831
0.00488831
0.00491219
0.00495043
0.00501588
0.0050853
0.00515137
0.00505093
0.00498671
0.0049511
0.0049273
0.00492728
0.00495106
0.0049867
0.00505092
0.0051513
0.00526434
0.00509671
0.00505539
0.00501631
0.00499061
0.00499059
0.00501625
0.00505537
0.00509667
0.0052642
0.00543978
0.00526595
0.0051516
0.00508529
0.00505531
0.00505529
0.00508527
0.00515167
0.00526606
0.00543983
0.00468783
0.00442787
0.00437578
0.00429352
0.00426377
0.00426429
0.00429396
0.00437695
0.00443181
0.00468923
0.0044295
0.00426684
0.00424611
0.0042014
0.00417863
0.00417894
0.00420274
0.00425178
0.00426788
0.00442932
0.00437678
0.00425115
0.00418401
0.00413325
0.0041034
0.00410368
0.0041346
0.0041855
0.00424708
0.00437613
0.00429394
0.00420225
0.00413411
0.00408699
0.00405676
0.00405723
0.00408728
0.00413406
0.00420242
0.00429392
0.00426401
0.00417892
0.00410368
0.00405723
0.00403129
0.00403133
0.00405697
0.0041039
0.00417927
0.00426454
0.00426446
0.00417914
0.00410377
0.00405697
0.00403138
0.00403139
0.00405701
0.00410392
0.00417927
0.00426457
0.00429401
0.00420236
0.00413406
0.00408739
0.00405746
0.00405746
0.00408738
0.00413409
0.00420242
0.00429403
0.00437645
0.00424711
0.00418562
0.00413484
0.00410404
0.00410402
0.00413478
0.00418558
0.00424711
0.00437634
0.00442993
0.00426801
0.00425198
0.00420302
0.00417933
0.0041793
0.00420293
0.00425189
0.00426797
0.00442967
0.00468933
0.00443151
0.00437688
0.00429407
0.00426457
0.00426454
0.00429398
0.00437683
0.0044316
0.00468922
0.00407149
0.00379914
0.00375852
0.00366846
0.00363893
0.00363937
0.00366881
0.00375955
0.00380176
0.00406954
0.00380076
0.00364399
0.00360816
0.00354309
0.00351836
0.00351857
0.00354432
0.00361412
0.00364515
0.00379932
0.00375962
0.00361327
0.00353191
0.00345508
0.00341573
0.00341592
0.00345602
0.00353318
0.00360947
0.00375875
0.00366854
0.00354391
0.00345591
0.0033867
0.00334629
0.00334665
0.00338665
0.00345542
0.00354386
0.00366876
0.00363903
0.00351856
0.00341596
0.00334671
0.00330809
0.00330809
0.00334631
0.00341599
0.00351864
0.00363929
0.00363955
0.00351873
0.00341599
0.00334639
0.00330814
0.00330814
0.00334635
0.00341602
0.00351863
0.00363929
0.00366894
0.00354393
0.00345552
0.0033868
0.00334684
0.00334683
0.00338675
0.00345547
0.00354385
0.00366881
0.00375894
0.00360953
0.00353338
0.00345628
0.00341621
0.0034162
0.0034562
0.00353329
0.00360948
0.00375888
0.00379981
0.00364537
0.00361447
0.00354463
0.00351879
0.00351877
0.00354451
0.00361429
0.00364527
0.00379965
0.00406968
0.00380167
0.00375967
0.00366894
0.00363934
0.00363935
0.00366886
0.00375957
0.00380166
0.00406966
0.00367347
0.00344213
0.00339921
0.00331765
0.00329047
0.00329079
0.00331807
0.00340067
0.00344533
0.00367057
0.00344396
0.00331959
0.00326593
0.00319346
0.00316776
0.00316789
0.00319461
0.00327229
0.00332195
0.00344315
0.00340001
0.00327101
0.00318708
0.00309999
0.00305908
0.00305931
0.00310072
0.00318802
0.00326765
0.00340012
0.00331755
0.00319425
0.00310075
0.0030206
0.00297786
0.00297828
0.00302057
0.00310011
0.00319416
0.00331825
0.00329054
0.00316794
0.00305926
0.00297824
0.0029345
0.00293457
0.00297798
0.00305939
0.00316803
0.00329079
0.00329101
0.00316807
0.00305934
0.002978
0.00293462
0.00293466
0.00297805
0.00305946
0.00316805
0.0032908
0.0033183
0.0031942
0.00310022
0.00302073
0.00297852
0.00297856
0.00302078
0.00310027
0.00319422
0.00331831
0.0034001
0.00326766
0.00318826
0.00310102
0.00305966
0.00305969
0.00310104
0.00318828
0.00326773
0.00340026
0.00344339
0.00332214
0.00327272
0.00319502
0.00316821
0.00316822
0.00319499
0.00327263
0.00332212
0.00344353
0.00367091
0.00344555
0.00340113
0.00331846
0.00329088
0.00329091
0.0033184
0.00340096
0.00344541
0.00367094
0.00346361
0.00330067
0.00325703
0.00318572
0.00316083
0.0031611
0.00318643
0.00325946
0.00330549
0.00346253
0.00330299
0.00321766
0.00315488
0.00308627
0.00306126
0.00306151
0.00308773
0.00316184
0.00322117
0.00330339
0.00325809
0.00316031
0.0030853
0.00300478
0.00296963
0.0029701
0.0030059
0.00308628
0.00315702
0.00325906
0.003186
0.00308738
0.00300566
0.00293242
0.00289675
0.0028974
0.00293286
0.00300533
0.00308737
0.00318692
0.00316116
0.00306168
0.00296996
0.00289721
0.00286063
0.00286083
0.00289721
0.00297041
0.00306203
0.00316153
0.00316146
0.00306182
0.00297022
0.00289718
0.00286091
0.00286101
0.00289734
0.00297052
0.00306208
0.00316156
0.00318675
0.00308728
0.00300541
0.00293309
0.00289784
0.00289791
0.00293322
0.00300562
0.00308753
0.00318703
0.00325885
0.00315698
0.00308655
0.00300633
0.00297075
0.00297082
0.00300646
0.00308673
0.00315721
0.00325918
0.0033034
0.0032213
0.00316232
0.00308833
0.00306223
0.00306229
0.00308843
0.00316241
0.00322145
0.00330373
0.00346278
0.00330574
0.00326006
0.00318709
0.00316158
0.00316163
0.00318711
0.00326
0.00330566
0.00346286
0.00338273
0.00327909
0.00323529
0.00317466
0.00315161
0.00315185
0.00317551
0.00323809
0.00328453
0.0033834
0.00328166
0.00322275
0.00315968
0.00309953
0.00307552
0.0030759
0.00310129
0.00316687
0.00322596
0.00328224
0.00323681
0.00316558
0.0031004
0.00302976
0.00300022
0.0030009
0.00303139
0.00310151
0.00316169
0.00323753
0.00317539
0.00310094
0.00303076
0.00296655
0.00293721
0.00293804
0.00296738
0.00303071
0.00310081
0.00317602
0.00315218
0.00307606
0.00300061
0.00293772
0.00290845
0.0029087
0.00293779
0.00300117
0.0030765
0.00315251
0.00315231
0.0030762
0.003001
0.00293778
0.00290879
0.0029089
0.00293791
0.00300126
0.00307653
0.00315257
0.00317586
0.00310069
0.00303081
0.00296761
0.00293849
0.00293855
0.00296769
0.00303094
0.00310091
0.00317612
0.00323742
0.00316164
0.00310178
0.00303182
0.00300157
0.00300161
0.00303188
0.00310186
0.00316178
0.00323759
0.00328242
0.00322614
0.00316741
0.00310196
0.00307676
0.00307678
0.00310198
0.00316741
0.00322617
0.00328255
0.00338378
0.00328477
0.00323873
0.00317628
0.00315262
0.00315265
0.00317629
0.00323865
0.00328467
0.00338379
0.00334152
0.00327377
0.00323267
0.00318248
0.00316109
0.00316126
0.00318324
0.00323525
0.00327845
0.00334176
0.00327665
0.00323366
0.00317714
0.00312583
0.00310293
0.00310339
0.00312783
0.00318455
0.00323615
0.00327617
0.00323468
0.00318345
0.00312647
0.00306418
0.00303818
0.00303891
0.00306611
0.00312771
0.00317895
0.00323455
0.00318334
0.00312732
0.00306522
0.00300775
0.00298178
0.0029826
0.0030086
0.00306517
0.00312701
0.00318358
0.00316156
0.00310335
0.00303847
0.00298225
0.00295731
0.00295752
0.00298217
0.00303888
0.00310371
0.00316186
0.00316156
0.00310345
0.00303881
0.0029822
0.00295756
0.00295764
0.00298223
0.00303892
0.00310372
0.00316188
0.00318334
0.00312685
0.00306523
0.00300869
0.00298285
0.00298288
0.00300873
0.00306526
0.00312697
0.00318354
0.0032343
0.00317879
0.00312781
0.00306625
0.00303922
0.00303925
0.00306626
0.00312779
0.00317881
0.00323435
0.00327615
0.00323617
0.00318487
0.00312818
0.00310391
0.00310391
0.00312817
0.00318483
0.00323619
0.0032762
0.00334202
0.00327855
0.00323572
0.00318376
0.00316188
0.00316188
0.00318379
0.00323571
0.00327859
0.00334202
0.00329352
0.00324629
0.00321139
0.00317029
0.00315048
0.00315065
0.00317105
0.00321392
0.00325034
0.00329306
0.00324928
0.00321911
0.00317179
0.00312775
0.00310606
0.00310653
0.00312988
0.0031795
0.0032214
0.00324818
0.00321344
0.00317812
0.0031281
0.00307227
0.00304836
0.003049
0.00307418
0.00312939
0.00317341
0.00321299
0.00317075
0.00312892
0.00307318
0.00302087
0.00299659
0.0029973
0.00302147
0.00307293
0.00312849
0.00317097
0.00315054
0.00310604
0.00304836
0.00299694
0.00297451
0.00297463
0.00299664
0.00304853
0.00310629
0.00315084
0.00315052
0.00310608
0.00304851
0.00299664
0.00297457
0.00297465
0.00299662
0.00304852
0.00310628
0.00315083
0.00317065
0.00312833
0.00307288
0.00302132
0.00299721
0.00299725
0.00302136
0.00307287
0.00312837
0.00317079
0.00321247
0.00317317
0.00312926
0.00307392
0.00304879
0.0030488
0.0030739
0.00312914
0.00317309
0.0032125
0.00324769
0.00322127
0.00317952
0.00312972
0.00310646
0.00310644
0.00312966
0.00317937
0.0032212
0.0032478
0.00329297
0.00325041
0.00321419
0.00317111
0.00315082
0.00315078
0.00317113
0.00321415
0.00325048
0.00329315
0.00323581
0.00319867
0.00317175
0.00313808
0.00311977
0.00312
0.00313901
0.00317458
0.00320282
0.00323508
0.00320189
0.00318394
0.00314552
0.00310689
0.00308634
0.00308679
0.00310911
0.00315358
0.00318661
0.00320092
0.00317357
0.0031517
0.00310746
0.00305639
0.00303363
0.00303412
0.0030581
0.00310866
0.00314703
0.00317339
0.00313808
0.00310778
0.00305719
0.00300868
0.00298515
0.00298572
0.00300897
0.00305663
0.00310722
0.00313856
0.00311951
0.00308602
0.00303342
0.00298542
0.00296434
0.00296439
0.00298495
0.00303338
0.00308616
0.00311988
0.00311956
0.00308599
0.00303334
0.00298486
0.00296425
0.00296435
0.00298489
0.00303335
0.00308616
0.00311985
0.00313819
0.00310706
0.00305642
0.00300859
0.0029854
0.00298547
0.00300873
0.00305651
0.00310714
0.00313834
0.00317266
0.00314671
0.00310826
0.00305748
0.00303353
0.00303357
0.00305756
0.00310824
0.00314671
0.00317277
0.00319995
0.00318629
0.00315319
0.00310846
0.00308625
0.00308624
0.00310845
0.0031531
0.00318624
0.00320011
0.00323476
0.00320301
0.00317465
0.00313868
0.00311981
0.00311975
0.00313865
0.00317452
0.00320292
0.00323484
0.00317886
0.00314033
0.0031208
0.00309296
0.00307594
0.00307616
0.00309382
0.00312368
0.0031445
0.00317823
0.00314328
0.00313687
0.00310594
0.00307122
0.00305159
0.00305195
0.00307323
0.00311383
0.00313949
0.00314256
0.00312206
0.00311183
0.00307239
0.00302481
0.00300257
0.0030029
0.00302616
0.00307317
0.00310682
0.00312193
0.00309251
0.00307193
0.0030256
0.00297982
0.00295654
0.00295701
0.00297982
0.00302465
0.00307098
0.00309292
0.00307547
0.0030512
0.00300241
0.00295687
0.00293646
0.00293648
0.00295629
0.00300219
0.00305109
0.00307566
0.00307555
0.00305111
0.00300218
0.00295622
0.00293637
0.00293646
0.00295625
0.00300218
0.00305116
0.00307566
0.00309279
0.00307109
0.0030245
0.00297951
0.0029568
0.00295687
0.00297967
0.00302462
0.00307112
0.00309285
0.00312143
0.00310683
0.00307282
0.00302562
0.00300242
0.00300246
0.00302573
0.00307287
0.00310684
0.00312156
0.00314144
0.00313928
0.00311328
0.00307249
0.00305136
0.00305135
0.00307251
0.00311326
0.00313926
0.0031417
0.00317764
0.00314479
0.00312348
0.00309322
0.00307573
0.00307566
0.00309318
0.00312334
0.00314458
0.0031777
0.00313436
0.0030786
0.00306407
0.00304055
0.00302479
0.00302505
0.00304153
0.00306715
0.00308307
0.00313426
0.00308129
0.00308439
0.00305925
0.00302744
0.00300869
0.00300906
0.0030295
0.00306706
0.0030868
0.00308067
0.00306506
0.00306519
0.00302974
0.00298481
0.00296296
0.00296332
0.00298617
0.00303032
0.00305982
0.00306475
0.00304027
0.00302855
0.00298586
0.00294217
0.0029191
0.00291962
0.00294225
0.00298484
0.00302731
0.00304047
0.00302461
0.00300873
0.00296322
0.00291964
0.00289966
0.00289973
0.00291914
0.00296298
0.0030085
0.00302464
0.00302473
0.00300865
0.00296299
0.00291912
0.00289975
0.00289982
0.00291916
0.00296298
0.00300857
0.00302467
0.00304077
0.00302765
0.00298485
0.00294221
0.00291981
0.00291985
0.0029423
0.0029849
0.00302757
0.00304068
0.00306501
0.00306023
0.00303022
0.00298603
0.00296338
0.00296338
0.0029861
0.00303026
0.00306016
0.00306499
0.00308023
0.0030868
0.00306653
0.00302905
0.00300893
0.00300893
0.00302911
0.00306661
0.00308682
0.0030804
0.00313381
0.00308321
0.00306666
0.003041
0.00302487
0.00302482
0.00304101
0.00306665
0.00308311
0.00313388
0.00311516
0.00302164
0.00300701
0.00298621
0.0029715
0.00297167
0.00298698
0.00300977
0.00302556
0.00311473
0.00302401
0.00303127
0.00301033
0.00298088
0.00296299
0.00296337
0.00298292
0.00301783
0.00303283
0.00302246
0.00300816
0.00301659
0.00298451
0.00294184
0.00292042
0.00292089
0.00294336
0.00298502
0.00301067
0.00300692
0.00298648
0.00298262
0.00294323
0.00290137
0.00287862
0.00287924
0.00290168
0.00294233
0.0029811
0.00298609
0.00297172
0.00296355
0.00292113
0.00287938
0.0028598
0.00285992
0.002879
0.00292098
0.00296324
0.00297148
0.00297173
0.00296341
0.00292099
0.0028791
0.00286011
0.00286014
0.00287909
0.00292099
0.00296327
0.00297151
0.00298664
0.0029815
0.00294249
0.00290201
0.00287993
0.0028799
0.00290197
0.00294244
0.00298134
0.0029864
0.00300789
0.00301133
0.00298526
0.00294382
0.00292163
0.00292157
0.00294378
0.00298522
0.00301116
0.00300762
0.0030229
0.00303309
0.0030176
0.00298305
0.00296385
0.00296383
0.00298309
0.00301768
0.00303306
0.00302284
0.00311455
0.00302547
0.00300915
0.00298674
0.00297179
0.00297177
0.00298681
0.00300925
0.00302543
0.00311456
0.00311731
0.00297469
0.00295257
0.00293289
0.00291916
0.00291929
0.00293357
0.00295509
0.00297806
0.00311626
0.0029769
0.00297962
0.00296183
0.00293476
0.00291796
0.00291843
0.00293707
0.00296945
0.00298082
0.00297451
0.00295421
0.00296859
0.00293985
0.00289949
0.00287878
0.00287944
0.00290148
0.00294078
0.00296275
0.00295243
0.00293383
0.00293714
0.00290116
0.00286121
0.00283904
0.00283983
0.00286196
0.00290074
0.00293586
0.00293329
0.00291972
0.00291888
0.00287973
0.00283988
0.00282082
0.00282104
0.00283974
0.00287989
0.00291885
0.00291958
0.00291962
0.00291874
0.00287974
0.00283982
0.00282129
0.00282132
0.00283988
0.00287989
0.00291879
0.00291956
0.00293362
0.00293593
0.00290086
0.00286248
0.00284081
0.00284077
0.00286243
0.00290087
0.00293592
0.0029335
0.00295355
0.00296326
0.00294124
0.00290238
0.00288069
0.00288062
0.00290232
0.00294121
0.00296314
0.00295323
0.00297569
0.00298124
0.00296972
0.00293788
0.00291953
0.00291951
0.0029379
0.0029698
0.0029812
0.00297543
0.00311664
0.00297794
0.00295484
0.002934
0.00291994
0.00291994
0.00293407
0.00295497
0.00297796
0.00311651
0.00310199
0.00294375
0.00290363
0.00288275
0.00286968
0.0028698
0.00288347
0.00290612
0.00294679
0.00310056
0.0029461
0.00293114
0.00291529
0.0028907
0.00287512
0.00287565
0.00289323
0.00292311
0.00293232
0.00294327
0.00290604
0.00292249
0.00289721
0.00285933
0.00283946
0.00284022
0.0028616
0.00289852
0.00291695
0.00290413
0.0028842
0.00289337
0.00286103
0.00282313
0.00280164
0.00280249
0.00282406
0.00286091
0.00289239
0.00288378
0.0028703
0.00287596
0.00284025
0.00280234
0.00278384
0.00278406
0.00280227
0.00284055
0.00287616
0.00287036
0.00287014
0.00287579
0.00284027
0.00280229
0.00278423
0.00278425
0.00280236
0.00284053
0.00287604
0.00287027
0.00288361
0.00289204
0.00286086
0.00282446
0.00280328
0.00280325
0.00282446
0.00286097
0.0028922
0.00288369
0.00290467
0.00291698
0.00289894
0.00286249
0.00284133
0.00284128
0.00286246
0.00289895
0.00291698
0.00290449
0.00294436
0.00293259
0.00292372
0.0028943
0.00287677
0.00287676
0.00289431
0.00292377
0.00293258
0.0029441
0.00310118
0.00294664
0.00290635
0.00288435
0.0028706
0.00287061
0.00288439
0.00290647
0.00294673
0.00310104
0.00294064
0.00293181
0.00286282
0.00283713
0.0028238
0.00282397
0.00283799
0.00286543
0.00293475
0.00293911
0.00293458
0.00288677
0.00287088
0.00284868
0.00283426
0.00283484
0.00285137
0.00287891
0.0028882
0.00293169
0.00286584
0.00287824
0.00285645
0.00282112
0.00280212
0.00280287
0.00282346
0.00285795
0.00287305
0.00286414
0.00283861
0.00285117
0.00282263
0.00278684
0.00276606
0.00276685
0.00278768
0.0028225
0.00285036
0.00283843
0.00282413
0.0028347
0.00280246
0.00276646
0.00274849
0.00274865
0.00276626
0.00280268
0.00283494
0.00282437
0.00282403
0.00283454
0.00280241
0.00276623
0.00274863
0.00274864
0.00276625
0.00280265
0.00283484
0.00282427
0.00283787
0.00284982
0.00282231
0.00278774
0.00276709
0.00276709
0.00278779
0.00282246
0.00285006
0.0028381
0.0028638
0.00287263
0.00285815
0.0028239
0.00280333
0.00280332
0.00282391
0.00285818
0.00287271
0.00286381
0.00293208
0.00288819
0.00287957
0.00285217
0.00283545
0.00283545
0.00285216
0.00287955
0.0028882
0.00293192
0.00293967
0.00293462
0.00286602
0.00283888
0.00282451
0.00282451
0.00283887
0.00286605
0.00293474
0.00293958
0.00249087
0.00293194
0.00283318
0.0027976
0.00278237
0.00278259
0.00279858
0.00283586
0.00293484
0.00249021
0.00293506
0.0028482
0.00282881
0.00280841
0.00279487
0.00279545
0.00281108
0.00283681
0.00284973
0.00293231
0.00283629
0.0028359
0.0028172
0.00278429
0.00276604
0.00276668
0.00278644
0.00281857
0.0028308
0.00283479
0.00279861
0.00281033
0.00278546
0.0027517
0.00273154
0.00273222
0.00275223
0.00278501
0.00280939
0.00279852
0.00278232
0.0027948
0.00276588
0.00273167
0.00271419
0.00271424
0.00273122
0.0027658
0.00279484
0.0027825
0.00278235
0.0027947
0.00276574
0.00273121
0.00271406
0.00271406
0.00273113
0.00276579
0.00279483
0.00278247
0.00279804
0.00280909
0.00278485
0.00275199
0.00273189
0.00273191
0.00275204
0.00278493
0.0028092
0.00279818
0.00283391
0.00283029
0.00281854
0.0027863
0.00276638
0.00276639
0.00278631
0.0028185
0.00283032
0.00283397
0.0029319
0.00284955
0.00283725
0.00281127
0.00279534
0.00279533
0.0028112
0.0028371
0.00284948
0.0029318
0.00249051
0.00293481
0.00283652
0.00279904
0.00278262
0.0027826
0.00279893
0.00283639
0.00293482
0.00249056
0.00365909
0.00291097
0.00281591
0.00276552
0.00274622
0.00274652
0.00276668
0.00281875
0.002914
0.00365842
0.00291441
0.00281686
0.00278908
0.00276927
0.00275622
0.00275682
0.00277195
0.00279705
0.00281846
0.00291193
0.0028187
0.00279571
0.00277887
0.00274803
0.00273037
0.00273093
0.00275
0.00278004
0.00279056
0.00281734
0.00276598
0.00277066
0.00274895
0.00271701
0.00269737
0.00269795
0.00271727
0.00274817
0.00276949
0.00276587
0.00274601
0.00275592
0.00272998
0.00269738
0.00268034
0.00268033
0.00269678
0.00272967
0.00275575
0.0027461
0.00274619
0.00275587
0.00272978
0.00269678
0.0026801
0.0026801
0.00269668
0.00272972
0.00275588
0.0027462
0.00276574
0.00276953
0.00274806
0.00271684
0.00269736
0.00269741
0.00271694
0.00274813
0.00276957
0.0027658
0.00281641
0.00279017
0.00277972
0.00274934
0.00273017
0.00273022
0.00274942
0.00277972
0.00279021
0.00281651
0.00291093
0.00281813
0.00279697
0.00277142
0.00275621
0.00275623
0.00277141
0.00279687
0.00281812
0.00291099
0.00365842
0.00291408
0.00281912
0.00276654
0.00274621
0.0027462
0.00276644
0.00281895
0.00291403
0.00365874
0.00645913
0.00278898
0.00280727
0.00274246
0.00271699
0.00271723
0.00274346
0.00280979
0.00279141
0.00645683
0.00279207
0.00279307
0.00275239
0.00273122
0.00271815
0.00271869
0.00273369
0.00275997
0.00279428
0.00278962
0.0028091
0.00275834
0.0027412
0.002712
0.00269474
0.00269522
0.00271372
0.00274202
0.00275287
0.00280752
0.00274212
0.00273209
0.00271277
0.00268243
0.00266322
0.00266373
0.00268251
0.00271172
0.00273064
0.00274179
0.00271651
0.00271774
0.00269439
0.00266332
0.0026467
0.00264667
0.00266268
0.002694
0.00271747
0.00271649
0.00271665
0.00271764
0.00269414
0.00266271
0.00264653
0.00264656
0.00266266
0.0026941
0.00271767
0.00271666
0.00274194
0.00273087
0.00271162
0.00268212
0.00266331
0.00266339
0.00268229
0.00271177
0.00273099
0.00274206
0.00280687
0.00275268
0.00274147
0.00271286
0.00269451
0.00269459
0.00271303
0.0027416
0.00275285
0.00280712
0.0027882
0.00279382
0.00275927
0.00273265
0.00271796
0.00271802
0.00273275
0.00275936
0.002794
0.00278864
0.00645681
0.00279148
0.00280947
0.0027426
0.00271663
0.00271666
0.00274263
0.00280947
0.00279145
0.00645693
0.00987617
0.00250492
0.00278944
0.00272651
0.00269481
0.002695
0.00272732
0.00279152
0.00250694
0.00987314
0.00250771
0.00277273
0.00272019
0.00269497
0.00268138
0.00268181
0.00269712
0.00272713
0.00277319
0.00250516
0.00279054
0.00272583
0.00270509
0.00267695
0.00265998
0.00266035
0.00267833
0.0027053
0.00271969
0.00278849
0.00272612
0.00269608
0.00267797
0.00264895
0.00263004
0.00263047
0.00264878
0.00267646
0.00269402
0.00272531
0.00269471
0.00268155
0.00266022
0.00263051
0.00261421
0.00261414
0.00262972
0.00265952
0.00268086
0.00269435
0.00269471
0.00268132
0.00265991
0.00263
0.00261425
0.00261423
0.0026298
0.0026596
0.00268099
0.00269448
0.00272586
0.00269457
0.00267665
0.00264879
0.00263059
0.00263061
0.00264879
0.00267652
0.00269436
0.00272574
0.00278868
0.00271998
0.00270495
0.00267781
0.00266016
0.00266018
0.00267784
0.00270488
0.00271986
0.00278863
0.00250459
0.00277303
0.00272632
0.00269617
0.00268143
0.00268145
0.0026962
0.00272628
0.00277298
0.00250478
0.00987319
0.00250708
0.00279072
0.00272626
0.00269457
0.00269461
0.00272635
0.00279081
0.00250695
0.00987313
0.0137769
0.00299739
0.00271939
0.00270926
0.0026768
0.00267679
0.00270955
0.00272043
0.00299918
0.0137734
0.00299917
0.00274086
0.00269288
0.00266071
0.00264606
0.0026464
0.00266259
0.00269923
0.00274051
0.00299594
0.00271996
0.0026986
0.00267015
0.00264251
0.00262584
0.00262616
0.00264367
0.00266992
0.00269183
0.00271722
0.00270932
0.00266245
0.00264396
0.00261611
0.00259752
0.00259792
0.00261582
0.00264216
0.00265989
0.0027078
0.00267727
0.00264699
0.00262681
0.00259842
0.00258245
0.00258235
0.00259754
0.00262588
0.00264588
0.00267634
0.00267704
0.00264661
0.00262648
0.00259807
0.00258273
0.00258266
0.00259771
0.00262592
0.00264587
0.0026763
0.00270877
0.00266074
0.00264269
0.00261637
0.0025987
0.00259864
0.00261613
0.00264223
0.00266006
0.00270806
0.00271851
0.00269279
0.00267013
0.00264389
0.00262676
0.00262669
0.00264368
0.00266972
0.00269211
0.00271768
0.00299604
0.00274111
0.00269891
0.0026623
0.00264666
0.00264659
0.00266209
0.00269853
0.00274044
0.00299641
0.0137733
0.00299899
0.00271992
0.00270893
0.00267668
0.00267662
0.00270876
0.00271961
0.00299917
0.0137733
0.0179757
0.00488217
0.00254047
0.00266776
0.00265207
0.0026522
0.00266843
0.00254203
0.0048852
0.0179721
0.00488483
0.00266658
0.00266997
0.00262933
0.00261324
0.00261375
0.00263168
0.00267686
0.00266681
0.0048803
0.00254109
0.00267623
0.00263716
0.00260938
0.00259327
0.00259376
0.00261098
0.00263743
0.00266993
0.00253936
0.00266869
0.00263189
0.00261118
0.00258456
0.00256658
0.00256714
0.00258471
0.00260992
0.00262975
0.00266759
0.00265294
0.00261455
0.00259453
0.00256761
0.00255219
0.00255223
0.00256709
0.00259406
0.00261386
0.00265235
0.00265262
0.0026141
0.00259423
0.00256739
0.00255261
0.00255261
0.00256728
0.00259403
0.00261371
0.00265214
0.0026681
0.00263005
0.00261014
0.00258526
0.00256817
0.00256817
0.0025852
0.00260999
0.00262971
0.0026676
0.00254073
0.00267068
0.00263772
0.00261155
0.00259484
0.00259482
0.00261151
0.00263761
0.00267031
0.00254014
0.00487987
0.00266741
0.00267683
0.00263195
0.00261456
0.00261454
0.00263195
0.00267679
0.00266715
0.00488043
0.0179718
0.00488405
0.00254173
0.0026685
0.00265264
0.00265258
0.00266837
0.00254162
0.00488472
0.017972
0.0222669
0.00732673
0.00247686
0.00256646
0.00259745
0.00259761
0.00256729
0.002479
0.00733022
0.0222638
0.00733054
0.00252238
0.0026491
0.00260181
0.00258353
0.00258412
0.00260442
0.00265634
0.0025228
0.00732381
0.00247861
0.00265591
0.00260709
0.00257788
0.00256221
0.00256281
0.0025798
0.00260779
0.00264996
0.00247647
0.00256797
0.00260469
0.00257971
0.00255414
0.00253685
0.00253751
0.00255461
0.0025789
0.00260294
0.00256726
0.002598
0.00258447
0.00256313
0.00253765
0.00252282
0.00252294
0.00253739
0.00256305
0.00258417
0.00259774
0.00259748
0.00258384
0.00256271
0.00253731
0.00252308
0.00252314
0.00253741
0.00256288
0.00258388
0.00259736
0.00256671
0.00260237
0.00257848
0.00255466
0.0025381
0.00253815
0.0025548
0.00257872
0.00260252
0.00256663
0.00247646
0.00264979
0.00260763
0.00258006
0.00256349
0.00256353
0.00258023
0.00260794
0.00264995
0.00247666
0.00732396
0.00252244
0.00265601
0.00260456
0.00258457
0.00258464
0.00260482
0.00265648
0.00252281
0.0073239
0.0222633
0.00732926
0.0024779
0.00256719
0.00259764
0.00259769
0.00256743
0.00247797
0.00732942
0.0222635
0.0264721
0.0101657
0.00346277
0.00241402
0.0024835
0.0024837
0.00241495
0.0034655
0.0101697
0.02647
0.0101703
0.00241141
0.00262165
0.00257739
0.00255685
0.00255746
0.00258003
0.00262888
0.00241121
0.0101624
0.00346602
0.00262868
0.00258091
0.00254842
0.00253288
0.00253351
0.00255045
0.00258182
0.00262298
0.00346158
0.00241599
0.00258011
0.00255002
0.00252517
0.00250862
0.0025093
0.00252573
0.00254939
0.00257853
0.00241528
0.00248355
0.00255716
0.00253318
0.00250902
0.00249483
0.00249495
0.00250879
0.00253318
0.00255695
0.00248332
0.00248302
0.00255653
0.00253269
0.00250851
0.0024948
0.00249484
0.00250858
0.0025329
0.00255662
0.00248282
0.00241436
0.00257767
0.00254868
0.0025253
0.00250919
0.00250921
0.0025254
0.00254891
0.00257782
0.00241401
0.00346212
0.00262225
0.00258139
0.0025503
0.00253346
0.00253347
0.00255038
0.00258162
0.00262235
0.00346245
0.010163
0.00241106
0.00262851
0.00257998
0.00255731
0.00255733
0.00258011
0.00262884
0.0024108
0.010163
0.0264692
0.010169
0.00346551
0.00241485
0.00248319
0.00248325
0.00241505
0.00346455
0.010169
0.0264696
0.0304658
0.0133121
0.00520414
0.00262995
0.00236499
0.00236506
0.00263079
0.00520747
0.0133164
0.0304647
0.013317
0.00291765
0.00257431
0.00255346
0.00253213
0.00253263
0.00255572
0.00258076
0.00291632
0.0133088
0.00520787
0.00258105
0.00255971
0.00252139
0.00250523
0.00250574
0.00252312
0.00256025
0.00257509
0.00520234
0.00263161
0.00255563
0.00252265
0.00249772
0.00248172
0.00248228
0.00249797
0.00252168
0.00255372
0.00262982
0.00236435
0.00253187
0.00250499
0.00248181
0.00246818
0.00246818
0.00248131
0.00250468
0.00253135
0.00236369
0.00236398
0.00253138
0.00250452
0.00248115
0.0024679
0.00246786
0.00248101
0.00250446
0.0025312
0.00236343
0.00262982
0.0025534
0.00252128
0.00249748
0.00248171
0.00248167
0.00249741
0.00252128
0.00255327
0.00262977
0.0052029
0.00257468
0.00256004
0.00252283
0.00250517
0.00250513
0.00252274
0.00256
0.00257445
0.00520388
0.0133093
0.00291716
0.00258078
0.0025556
0.00253203
0.00253198
0.00255551
0.00258076
0.00291682
0.0133096
0.0304633
0.0133156
0.00520764
0.00263129
0.00236423
0.00236419
0.00263081
0.00520658
0.0133157
0.0304642
0.0341737
0.0166522
0.00732148
0.00370192
0.00270964
0.00270989
0.00370346
0.00732558
0.0166567
0.0341736
0.0166572
0.0041537
0.00249265
0.0025231
0.00250579
0.00250623
0.00252515
0.00249843
0.00415284
0.0166493
0.00732578
0.00249866
0.00254328
0.00249666
0.00247895
0.00247937
0.00249814
0.00254352
0.00249278
0.00731963
0.00370347
0.00252466
0.00249764
0.00247144
0.00245577
0.00245622
0.00247142
0.00249639
0.00252257
0.00370136
0.00270908
0.00250524
0.00247847
0.00245573
0.00244258
0.0024425
0.00245502
0.00247793
0.00250456
0.00270865
0.0027089
0.00250496
0.00247808
0.00245505
0.00244224
0.00244215
0.00245479
0.00247789
0.00250467
0.00270898
0.00370146
0.00252287
0.00249637
0.00247108
0.00245559
0.00245553
0.00247095
0.00249629
0.00252266
0.00370238
0.00731989
0.00249282