/*--------------------------------*- C++ -*----------------------------------*\
| =========                 |                                                 |
| \\      /  F ield         | OpenFOAM: The Open Source CFD Toolbox           |
|  \\    /   O peration     | Version:  2406                                  |
|   \\  /    A nd           | Website:  www.openfoam.com                      |
|    \\/     M anipulation  |                                                 |
\*---------------------------------------------------------------------------*/
FoamFile
{
    version     2.0;
    format      ascii;
    arch        "LSB;label=32;scalar=64";
    class       volScalarField;
    location    "200";
    object      turbulenceProperties:epsilon;
}
// * * * * * * * * * * * * * * * * * * * * * * * * * * * * * * * * * * * * * //

dimensions      [0 2 -3 0 0 0 0];

internalField   nonuniform List<scalar> 
25000
(
1.07577e-06
9.78438e-07
8.18902e-07
7.91138e-07
7.76919e-07
7.76985e-07
7.9154e-07
8.20022e-07
9.78265e-07
1.07259e-06
9.78706e-07
9.20848e-07
7.70443e-07
6.96568e-07
6.62158e-07
6.62229e-07
6.96828e-07
7.71451e-07
9.21493e-07
9.78041e-07
8.18674e-07
7.70995e-07
6.63823e-07
6.02856e-07
5.7427e-07
5.74321e-07
6.03051e-07
6.63963e-07
7.70784e-07
8.20072e-07
7.90925e-07
6.96471e-07
6.02878e-07
5.45814e-07
5.18599e-07
5.18674e-07
5.45934e-07
6.03037e-07
6.96886e-07
7.91641e-07
7.76744e-07
6.62023e-07
5.74222e-07
5.18621e-07
4.92092e-07
4.92127e-07
5.18689e-07
5.74429e-07
6.62383e-07
7.77142e-07
7.76863e-07
6.62122e-07
5.74258e-07
5.18612e-07
4.92118e-07
4.92145e-07
5.18705e-07
5.74442e-07
6.62392e-07
7.77148e-07
7.91445e-07
6.96693e-07
6.02919e-07
5.45899e-07
5.1871e-07
5.18733e-07
5.45978e-07
6.03069e-07
6.9692e-07
7.91654e-07
8.19951e-07
7.70657e-07
6.63887e-07
6.0306e-07
5.74401e-07
5.74421e-07
6.03128e-07
6.6402e-07
7.70838e-07
8.20086e-07
9.77913e-07
9.21374e-07
7.71387e-07
6.96856e-07
6.6235e-07
6.62367e-07
6.96911e-07
7.71499e-07
9.21517e-07
9.7797e-07
1.07248e-06
9.78291e-07
8.20033e-07
7.91595e-07
7.77117e-07
7.77133e-07
7.91653e-07
8.20116e-07
9.7836e-07
1.07264e-06
2.04083e-06
1.91085e-06
1.66616e-06
1.61786e-06
1.59078e-06
1.59085e-06
1.61794e-06
1.67038e-06
1.91638e-06
2.03378e-06
1.91244e-06
1.71701e-06
1.58199e-06
1.52566e-06
1.48994e-06
1.48997e-06
1.52605e-06
1.58642e-06
1.72165e-06
1.91471e-06
1.66613e-06
1.58553e-06
1.47136e-06
1.4257e-06
1.40166e-06
1.40178e-06
1.42653e-06
1.47211e-06
1.58263e-06
1.66998e-06
1.6177e-06
1.52574e-06
1.42609e-06
1.37405e-06
1.34785e-06
1.3482e-06
1.37436e-06
1.42613e-06
1.52584e-06
1.61789e-06
1.59063e-06
1.48982e-06
1.40164e-06
1.3481e-06
1.32311e-06
1.32318e-06
1.34801e-06
1.40186e-06
1.49006e-06
1.59094e-06
1.59069e-06
1.48988e-06
1.4017e-06
1.34793e-06
1.32318e-06
1.32321e-06
1.34803e-06
1.40188e-06
1.49009e-06
1.59096e-06
1.61778e-06
1.52574e-06
1.42604e-06
1.37435e-06
1.34828e-06
1.34831e-06
1.37443e-06
1.42619e-06
1.52592e-06
1.61796e-06
1.67001e-06
1.58263e-06
1.47206e-06
1.42657e-06
1.40188e-06
1.40191e-06
1.42664e-06
1.47221e-06
1.58278e-06
1.67009e-06
1.91452e-06
1.72156e-06
1.58628e-06
1.52603e-06
1.49006e-06
1.49008e-06
1.52611e-06
1.58644e-06
1.72171e-06
1.91455e-06
2.03357e-06
1.91625e-06
1.67014e-06
1.61787e-06
1.59094e-06
1.59096e-06
1.61795e-06
1.67033e-06
1.91641e-06
2.03375e-06
1.72141e-06
1.49988e-06
1.37375e-06
1.30289e-06
1.27052e-06
1.27077e-06
1.30289e-06
1.37551e-06
1.50689e-06
1.7237e-06
1.50172e-06
1.31317e-06
1.26333e-06
1.2255e-06
1.19955e-06
1.19971e-06
1.22627e-06
1.26823e-06
1.31522e-06
1.50451e-06
1.37416e-06
1.26774e-06
1.19473e-06
1.15764e-06
1.1348e-06
1.13499e-06
1.15874e-06
1.19578e-06
1.26375e-06
1.37475e-06
1.30303e-06
1.22595e-06
1.15826e-06
1.1193e-06
1.09595e-06
1.09636e-06
1.11962e-06
1.15826e-06
1.22596e-06
1.30276e-06
1.27056e-06
1.19964e-06
1.13494e-06
1.09632e-06
1.07666e-06
1.07671e-06
1.09613e-06
1.13514e-06
1.1999e-06
1.27091e-06
1.27076e-06
1.19978e-06
1.13503e-06
1.09613e-06
1.07675e-06
1.07676e-06
1.09617e-06
1.13516e-06
1.19992e-06
1.27094e-06
1.30281e-06
1.22596e-06
1.15827e-06
1.11971e-06
1.09654e-06
1.09654e-06
1.11972e-06
1.15832e-06
1.22603e-06
1.30287e-06
1.37501e-06
1.26388e-06
1.19588e-06
1.15893e-06
1.13525e-06
1.13524e-06
1.1589e-06
1.19588e-06
1.26388e-06
1.37495e-06
1.50478e-06
1.31534e-06
1.26831e-06
1.22645e-06
1.19998e-06
1.19996e-06
1.22639e-06
1.26829e-06
1.31531e-06
1.50463e-06
1.72345e-06
1.50661e-06
1.37527e-06
1.30286e-06
1.27096e-06
1.27094e-06
1.30284e-06
1.37534e-06
1.50674e-06
1.72352e-06
9.9071e-07
7.85283e-07
7.4661e-07
6.90573e-07
6.70912e-07
6.71246e-07
6.90865e-07
7.4743e-07
7.88117e-07
9.91969e-07
7.86441e-07
6.73891e-07
6.58469e-07
6.29626e-07
6.15333e-07
6.15521e-07
6.30432e-07
6.61983e-07
6.74576e-07
7.86354e-07
7.47295e-07
6.61575e-07
6.18301e-07
5.87296e-07
5.69758e-07
5.69915e-07
5.88065e-07
6.19198e-07
6.5909e-07
7.46876e-07
6.90845e-07
6.30136e-07
5.8778e-07
5.5988e-07
5.42752e-07
5.42999e-07
5.60045e-07
5.87769e-07
6.30252e-07
6.9085e-07
6.71071e-07
6.15505e-07
5.69917e-07
5.42999e-07
5.28487e-07
5.28512e-07
5.42866e-07
5.70047e-07
6.15724e-07
6.71415e-07
6.71354e-07
6.15638e-07
5.69971e-07
5.42864e-07
5.28537e-07
5.28544e-07
5.42889e-07
5.70058e-07
6.15722e-07
6.71436e-07
6.90902e-07
6.30215e-07
5.87768e-07
5.60106e-07
5.43127e-07
5.43128e-07
5.60105e-07
5.87787e-07
6.30254e-07
6.90924e-07
7.47096e-07
6.59106e-07
6.19269e-07
5.88205e-07
5.70122e-07
5.70113e-07
5.88175e-07
6.19249e-07
6.5911e-07
7.47025e-07
7.86789e-07
6.74659e-07
6.62112e-07
6.30613e-07
6.15759e-07
6.15741e-07
6.30557e-07
6.62057e-07
6.74639e-07
7.86611e-07
9.92063e-07
7.87911e-07
7.47388e-07
6.90949e-07
6.71436e-07
6.71416e-07
6.90888e-07
7.47356e-07
7.87982e-07
9.9197e-07
5.77616e-07
4.36327e-07
4.16774e-07
3.77509e-07
3.6514e-07
3.6532e-07
3.77659e-07
4.17242e-07
4.3755e-07
5.76548e-07
4.37074e-07
3.67682e-07
3.52217e-07
3.26733e-07
3.17339e-07
3.17416e-07
3.27187e-07
3.54542e-07
3.68163e-07
4.36427e-07
4.17266e-07
3.54202e-07
3.2214e-07
2.94275e-07
2.80742e-07
2.80805e-07
2.94594e-07
3.22607e-07
3.52738e-07
4.16891e-07
3.77544e-07
3.27033e-07
2.94555e-07
2.70937e-07
2.57893e-07
2.58002e-07
2.7092e-07
2.94392e-07
3.27023e-07
3.7764e-07
3.6518e-07
3.17413e-07
2.80819e-07
2.58021e-07
2.45976e-07
2.45976e-07
2.57902e-07
2.80829e-07
3.17444e-07
3.65293e-07
3.65392e-07
3.17475e-07
2.80828e-07
2.57925e-07
2.45992e-07
2.4599e-07
2.57915e-07
2.80839e-07
3.17442e-07
3.65293e-07
3.77712e-07
3.27048e-07
2.94428e-07
2.70969e-07
2.58063e-07
2.58061e-07
2.70955e-07
2.94412e-07
3.27022e-07
3.77661e-07
4.16973e-07
3.52759e-07
3.22683e-07
2.94685e-07
2.80904e-07
2.80899e-07
2.94658e-07
3.22649e-07
3.52743e-07
4.1695e-07
4.36653e-07
3.68254e-07
3.54684e-07
3.27307e-07
3.17499e-07
3.1749e-07
3.27264e-07
3.54615e-07
3.68212e-07
4.36581e-07
5.76627e-07
4.3751e-07
4.17298e-07
3.77715e-07
3.65314e-07
3.65314e-07
3.77685e-07
4.17253e-07
4.37507e-07
5.76619e-07
3.89127e-07
2.99123e-07
2.83778e-07
2.57056e-07
2.48508e-07
2.48606e-07
2.57187e-07
2.84271e-07
3.00254e-07
3.87919e-07
2.99764e-07
2.57748e-07
2.40718e-07
2.1958e-07
2.12363e-07
2.12399e-07
2.19897e-07
2.42596e-07
2.5849e-07
2.9949e-07
2.84046e-07
2.42214e-07
2.17515e-07
1.94239e-07
1.83967e-07
1.84021e-07
1.94422e-07
2.17776e-07
2.4123e-07
2.84088e-07
2.57025e-07
2.19797e-07
1.94427e-07
1.74648e-07
1.64763e-07
1.64856e-07
1.74642e-07
1.9427e-07
2.19774e-07
2.57244e-07
2.48532e-07
2.12413e-07
1.84011e-07
1.64847e-07
1.55168e-07
1.55184e-07
1.6479e-07
1.84044e-07
2.12437e-07
2.48609e-07
2.48673e-07
2.12448e-07
1.8403e-07
1.64796e-07
1.55194e-07
1.55203e-07
1.64808e-07
1.8406e-07
2.12443e-07
2.48611e-07
2.5726e-07
2.19784e-07
1.94298e-07
1.7468e-07
1.6491e-07
1.64918e-07
1.7469e-07
1.94312e-07
2.19793e-07
2.57265e-07
2.84081e-07
2.41234e-07
2.17842e-07
1.94497e-07
1.84109e-07
1.84116e-07
1.94503e-07
2.17848e-07
2.41256e-07
2.84137e-07
2.99576e-07
2.58551e-07
2.42726e-07
2.20011e-07
2.12487e-07
2.12491e-07
2.20004e-07
2.42699e-07
2.58545e-07
2.99625e-07
3.88067e-07
3.00332e-07
2.84429e-07
2.5731e-07
2.48638e-07
2.48645e-07
2.57292e-07
2.84372e-07
3.00283e-07
3.8808e-07
3.12155e-07
2.56894e-07
2.43058e-07
2.22105e-07
2.15062e-07
2.15138e-07
2.22305e-07
2.43792e-07
2.58414e-07
3.11785e-07
2.57623e-07
2.31233e-07
2.13083e-07
1.94746e-07
1.88315e-07
1.88377e-07
1.95117e-07
2.1497e-07
2.32253e-07
2.57752e-07
2.43377e-07
2.1455e-07
1.94239e-07
1.74349e-07
1.66143e-07
1.66246e-07
1.74608e-07
1.94488e-07
2.13665e-07
2.43671e-07
2.22181e-07
1.95027e-07
1.74551e-07
1.57767e-07
1.50048e-07
1.50183e-07
1.57863e-07
1.74477e-07
1.95028e-07
2.22444e-07
2.15155e-07
1.88419e-07
1.66215e-07
1.50143e-07
1.4252e-07
1.4256e-07
1.50145e-07
1.66319e-07
1.88505e-07
2.15257e-07
2.15237e-07
1.88454e-07
1.66275e-07
1.50138e-07
1.42576e-07
1.42597e-07
1.50173e-07
1.66344e-07
1.8852e-07
2.15267e-07
2.22396e-07
1.95005e-07
1.74497e-07
1.57913e-07
1.50275e-07
1.5029e-07
1.57942e-07
1.74546e-07
1.95069e-07
2.22475e-07
2.43607e-07
2.13655e-07
1.94557e-07
1.74711e-07
1.66394e-07
1.6641e-07
1.74741e-07
1.94603e-07
2.1372e-07
2.4371e-07
2.57756e-07
2.32291e-07
2.15102e-07
1.9527e-07
1.88556e-07
1.8857e-07
1.95297e-07
2.15129e-07
2.32335e-07
2.57862e-07
3.11879e-07
2.58495e-07
2.43974e-07
2.22491e-07
2.15272e-07
2.15287e-07
2.22499e-07
2.43957e-07
2.58472e-07
3.11909e-07
2.88515e-07
2.54419e-07
2.40668e-07
2.22801e-07
2.1623e-07
2.16297e-07
2.23044e-07
2.41512e-07
2.56133e-07
2.88764e-07
2.55226e-07
2.36706e-07
2.18115e-07
2.0158e-07
1.95208e-07
1.95306e-07
2.0204e-07
2.20113e-07
2.37658e-07
2.55412e-07
2.41123e-07
2.1975e-07
2.01546e-07
1.8339e-07
1.76144e-07
1.76304e-07
1.83788e-07
2.01839e-07
2.18678e-07
2.41344e-07
2.23009e-07
2.01947e-07
1.83632e-07
1.68158e-07
1.61411e-07
1.61591e-07
1.68347e-07
1.83623e-07
2.01919e-07
2.23191e-07
2.16389e-07
1.95347e-07
1.76236e-07
1.61522e-07
1.54984e-07
1.55038e-07
1.6154e-07
1.7637e-07
1.9546e-07
2.16485e-07
2.16426e-07
1.95384e-07
1.76329e-07
1.61537e-07
1.55057e-07
1.5508e-07
1.61567e-07
1.76392e-07
1.9547e-07
2.16499e-07
2.23143e-07
2.01885e-07
1.83647e-07
1.68399e-07
1.61693e-07
1.61705e-07
1.6842e-07
1.83682e-07
2.01944e-07
2.23218e-07
2.4131e-07
2.18665e-07
2.01909e-07
1.83892e-07
1.76463e-07
1.76473e-07
1.83908e-07
2.01933e-07
2.18703e-07
2.41363e-07
2.55467e-07
2.37712e-07
2.20264e-07
2.02216e-07
1.95527e-07
1.95534e-07
2.02224e-07
2.20265e-07
2.37724e-07
2.5551e-07
2.88896e-07
2.56211e-07
2.41704e-07
2.23264e-07
2.16516e-07
2.16522e-07
2.23267e-07
2.41682e-07
2.5618e-07
2.88898e-07
2.79347e-07
2.57262e-07
2.44247e-07
2.29131e-07
2.22871e-07
2.22922e-07
2.29355e-07
2.4504e-07
2.58764e-07
2.79447e-07
2.58184e-07
2.44331e-07
2.27113e-07
2.12391e-07
2.06033e-07
2.06155e-07
2.1294e-07
2.29248e-07
2.45091e-07
2.58032e-07
2.44863e-07
2.28926e-07
2.12302e-07
1.95454e-07
1.88693e-07
1.88876e-07
1.95948e-07
2.12643e-07
2.27637e-07
2.44825e-07
2.2938e-07
2.12798e-07
1.95718e-07
1.81021e-07
1.7464e-07
1.74832e-07
1.81226e-07
1.95712e-07
2.12716e-07
2.29455e-07
2.23005e-07
2.06145e-07
1.88765e-07
1.7475e-07
1.68764e-07
1.6881e-07
1.74733e-07
1.8887e-07
2.06245e-07
2.23092e-07
2.23006e-07
2.06171e-07
1.8885e-07
1.74739e-07
1.68819e-07
1.68839e-07
1.74748e-07
1.8888e-07
2.06246e-07
2.231e-07
2.29384e-07
2.12673e-07
1.95727e-07
1.8125e-07
1.7489e-07
1.74899e-07
1.81258e-07
1.95735e-07
2.12706e-07
2.29443e-07
2.4475e-07
2.2759e-07
2.12671e-07
1.95987e-07
1.88955e-07
1.88961e-07
1.95989e-07
2.12665e-07
2.27597e-07
2.44767e-07
2.58026e-07
2.45098e-07
2.29341e-07
2.13034e-07
2.06296e-07
2.06298e-07
2.13034e-07
2.2933e-07
2.45105e-07
2.58042e-07
2.79533e-07
2.58797e-07
2.45185e-07
2.29505e-07
2.23099e-07
2.23098e-07
2.29516e-07
2.45181e-07
2.5881e-07
2.79536e-07
2.68199e-07
2.53274e-07
2.42336e-07
2.29911e-07
2.24072e-07
2.24121e-07
2.30135e-07
2.43112e-07
2.5457e-07
2.68065e-07
2.54224e-07
2.44502e-07
2.29912e-07
2.17013e-07
2.10855e-07
2.10984e-07
2.17609e-07
2.32168e-07
2.45209e-07
2.53876e-07
2.4296e-07
2.3176e-07
2.16854e-07
2.01348e-07
1.94938e-07
1.95102e-07
2.01851e-07
2.17217e-07
2.30388e-07
2.42824e-07
2.30045e-07
2.1734e-07
2.01586e-07
1.87767e-07
1.81586e-07
1.81758e-07
1.87917e-07
2.01524e-07
2.17222e-07
2.30113e-07
2.24089e-07
2.10851e-07
1.94936e-07
1.8167e-07
1.76068e-07
1.76095e-07
1.81598e-07
1.94982e-07
2.10922e-07
2.24179e-07
2.24086e-07
2.10861e-07
1.94976e-07
1.81598e-07
1.76082e-07
1.76101e-07
1.81594e-07
1.9498e-07
2.10919e-07
2.24176e-07
2.30018e-07
2.17177e-07
2.01509e-07
1.87881e-07
1.81736e-07
1.81745e-07
1.87891e-07
2.01507e-07
2.17189e-07
2.30061e-07
2.42667e-07
2.30316e-07
2.17178e-07
2.01782e-07
1.95049e-07
1.95051e-07
2.01777e-07
2.17148e-07
2.30294e-07
2.42678e-07
2.53723e-07
2.45169e-07
2.32173e-07
2.17566e-07
2.10966e-07
2.1096e-07
2.17548e-07
2.3213e-07
2.45149e-07
2.53759e-07
2.68037e-07
2.54592e-07
2.43193e-07
2.30154e-07
2.24171e-07
2.24162e-07
2.30159e-07
2.43183e-07
2.54613e-07
2.68096e-07
2.5421e-07
2.43095e-07
2.34915e-07
2.24902e-07
2.19576e-07
2.19644e-07
2.25174e-07
2.3577e-07
2.44389e-07
2.53997e-07
2.44093e-07
2.38438e-07
2.26678e-07
2.15379e-07
2.09548e-07
2.09671e-07
2.15999e-07
2.29028e-07
2.39249e-07
2.43789e-07
2.35464e-07
2.28475e-07
2.15299e-07
2.01067e-07
1.9493e-07
1.95056e-07
2.01518e-07
2.15634e-07
2.27117e-07
2.35408e-07
2.24903e-07
2.15627e-07
2.01276e-07
1.88365e-07
1.82325e-07
1.82464e-07
1.88438e-07
2.01133e-07
2.15473e-07
2.25041e-07
2.19501e-07
2.0946e-07
1.94876e-07
1.82389e-07
1.77067e-07
1.77081e-07
1.82276e-07
1.94869e-07
2.09499e-07
2.19608e-07
2.19517e-07
2.09452e-07
1.94855e-07
1.82254e-07
1.77046e-07
1.77069e-07
1.82261e-07
1.94861e-07
2.09501e-07
2.196e-07
2.24935e-07
2.15428e-07
2.01075e-07
1.88342e-07
1.82384e-07
1.82402e-07
1.88379e-07
2.011e-07
2.15451e-07
2.2498e-07
2.3519e-07
2.27025e-07
2.15522e-07
2.01354e-07
1.94905e-07
1.94915e-07
2.01375e-07
2.15518e-07
2.27024e-07
2.35222e-07
2.43492e-07
2.39149e-07
2.28914e-07
2.15819e-07
2.09525e-07
2.09522e-07
2.15817e-07
2.28886e-07
2.39136e-07
2.43542e-07
2.53894e-07
2.44444e-07
2.35789e-07
2.25078e-07
2.19588e-07
2.19572e-07
2.25069e-07
2.3575e-07
2.44418e-07
2.5392e-07
2.40841e-07
2.29893e-07
2.24254e-07
2.16225e-07
2.11412e-07
2.11471e-07
2.16472e-07
2.251e-07
2.31148e-07
2.40663e-07
2.3078e-07
2.28863e-07
2.19597e-07
2.09614e-07
2.04129e-07
2.04226e-07
2.10167e-07
2.21859e-07
2.29636e-07
2.30556e-07
2.24627e-07
2.21282e-07
2.09717e-07
1.96621e-07
1.90699e-07
1.90783e-07
1.96975e-07
2.09932e-07
2.1985e-07
2.24586e-07
2.161e-07
2.09807e-07
1.96827e-07
1.84762e-07
1.78845e-07
1.78958e-07
1.84763e-07
1.96582e-07
2.09551e-07
2.16217e-07
2.1128e-07
2.04024e-07
1.90658e-07
1.78923e-07
1.73814e-07
1.73819e-07
1.78785e-07
1.90602e-07
2.03998e-07
2.11335e-07
2.11303e-07
2.04002e-07
1.90599e-07
1.78766e-07
1.73793e-07
1.73815e-07
1.78775e-07
1.90599e-07
2.04015e-07
2.11333e-07
2.16181e-07
2.09578e-07
1.96541e-07
1.84685e-07
1.78905e-07
1.78923e-07
1.84725e-07
1.96573e-07
2.09586e-07
2.16199e-07
2.24439e-07
2.19852e-07
2.09836e-07
1.96833e-07
1.90662e-07
1.9067e-07
1.96862e-07
2.09851e-07
2.19855e-07
2.24478e-07
2.30229e-07
2.29573e-07
2.21699e-07
2.09963e-07
2.04069e-07
2.04067e-07
2.09971e-07
2.21694e-07
2.29569e-07
2.30305e-07
2.40483e-07
2.31232e-07
2.2504e-07
2.16303e-07
2.11352e-07
2.11334e-07
2.16291e-07
2.25e-07
2.31173e-07
2.405e-07
2.31524e-07
2.1607e-07
2.12157e-07
2.05648e-07
2.01352e-07
2.01422e-07
2.05919e-07
2.13029e-07
2.17362e-07
2.31505e-07
2.1685e-07
2.17858e-07
2.10559e-07
2.01653e-07
1.96547e-07
1.96645e-07
2.02208e-07
2.12745e-07
2.18546e-07
2.16662e-07
2.12442e-07
2.12219e-07
2.02077e-07
1.89981e-07
1.84288e-07
1.84378e-07
1.90329e-07
2.02237e-07
2.10721e-07
2.12351e-07
2.05575e-07
2.01953e-07
1.90249e-07
1.78959e-07
1.73211e-07
1.73332e-07
1.78979e-07
1.89991e-07
2.01621e-07
2.05631e-07
2.01302e-07
1.96559e-07
1.84351e-07
1.73338e-07
1.68431e-07
1.68447e-07
1.7322e-07
1.84293e-07
1.965e-07
2.01311e-07
2.01334e-07
1.96538e-07
1.84297e-07
1.73216e-07
1.68452e-07
1.6847e-07
1.73227e-07
1.84295e-07
1.96519e-07
2.01322e-07
2.05709e-07
2.01712e-07
1.89992e-07
1.78969e-07
1.7338e-07
1.73389e-07
1.78992e-07
1.90006e-07
2.01693e-07
2.05688e-07
2.12423e-07
2.10835e-07
2.02209e-07
1.90296e-07
1.84395e-07
1.84394e-07
1.90314e-07
2.0222e-07
2.10817e-07
2.12419e-07
2.16538e-07
2.18547e-07
2.12598e-07
2.02089e-07
1.96613e-07
1.96612e-07
2.02106e-07
2.12619e-07
2.18553e-07
2.16588e-07
2.31373e-07
2.174e-07
2.12894e-07
2.05776e-07
2.01375e-07
2.01362e-07
2.05779e-07
2.12889e-07
2.17372e-07
2.31395e-07
2.29832e-07
2.03963e-07
2.00259e-07
1.94766e-07
1.90918e-07
1.90963e-07
1.94974e-07
2.01014e-07
2.05056e-07
2.29718e-07
2.04628e-07
2.06877e-07
2.0103e-07
1.93039e-07
1.88309e-07
1.88405e-07
1.93575e-07
2.03069e-07
2.0731e-07
2.04192e-07
2.0058e-07
2.02731e-07
1.93821e-07
1.82628e-07
1.77191e-07
1.77303e-07
1.83009e-07
1.93956e-07
2.01124e-07
2.00244e-07
1.9484e-07
1.93495e-07
1.82975e-07
1.72413e-07
1.66879e-07
1.67023e-07
1.72489e-07
1.82752e-07
1.93099e-07
1.94741e-07
1.90975e-07
1.88451e-07
1.77362e-07
1.67056e-07
1.62358e-07
1.62387e-07
1.6697e-07
1.77327e-07
1.88375e-07
1.90916e-07
1.90976e-07
1.88417e-07
1.7733e-07
1.66991e-07
1.6243e-07
1.62437e-07
1.66992e-07
1.77329e-07
1.88382e-07
1.90922e-07
1.94884e-07
1.93201e-07
1.82792e-07
1.72569e-07
1.67185e-07
1.67179e-07
1.7256e-07
1.82781e-07
1.93162e-07
1.94822e-07
2.005e-07
2.01303e-07
1.94018e-07
1.83124e-07
1.77486e-07
1.77472e-07
1.83115e-07
1.94009e-07
2.01257e-07
2.00431e-07
2.04313e-07
2.07384e-07
2.03008e-07
1.93611e-07
1.88531e-07
1.88527e-07
1.93621e-07
2.03032e-07
2.07374e-07
2.04298e-07
2.29669e-07
2.05034e-07
2.00852e-07
1.94912e-07
1.90996e-07
1.90991e-07
1.94931e-07
2.0088e-07
2.05023e-07
2.2967e-07
2.3468e-07
1.94821e-07
1.89352e-07
1.84395e-07
1.80951e-07
1.80985e-07
1.84573e-07
1.90019e-07
1.9574e-07
2.34378e-07
1.95427e-07
1.96511e-07
1.91759e-07
1.84648e-07
1.8034e-07
1.80456e-07
1.85237e-07
1.9377e-07
1.96837e-07
1.94783e-07
1.89789e-07
1.93543e-07
1.85802e-07
1.75496e-07
1.70373e-07
1.70529e-07
1.75982e-07
1.8604e-07
1.92001e-07
1.89322e-07
1.84636e-07
1.85254e-07
1.75902e-07
1.66067e-07
1.60801e-07
1.60979e-07
1.66242e-07
1.75802e-07
1.84929e-07
1.845e-07
1.81091e-07
1.80567e-07
1.70598e-07
1.60992e-07
1.56524e-07
1.56572e-07
1.60962e-07
1.70637e-07
1.80561e-07
1.81058e-07
1.81067e-07
1.80532e-07
1.706e-07
1.60979e-07
1.56629e-07
1.56635e-07
1.60993e-07
1.70639e-07
1.80548e-07
1.81053e-07
1.84583e-07
1.84948e-07
1.75832e-07
1.66364e-07
1.61204e-07
1.61195e-07
1.66354e-07
1.75835e-07
1.84946e-07
1.84554e-07
1.8961e-07
1.92134e-07
1.86158e-07
1.76203e-07
1.70828e-07
1.70811e-07
1.76189e-07
1.86152e-07
1.92104e-07
1.89531e-07
1.95092e-07
1.9695e-07
1.93843e-07
1.85445e-07
1.80732e-07
1.80727e-07
1.85452e-07
1.93865e-07
1.96939e-07
1.95026e-07
2.34492e-07
1.95711e-07
1.89959e-07
1.84684e-07
1.8115e-07
1.81149e-07
1.84701e-07
1.89992e-07
1.95716e-07
2.34456e-07
2.3469e-07
1.90007e-07
1.80101e-07
1.75053e-07
1.71903e-07
1.71935e-07
1.75234e-07
1.80739e-07
1.90827e-07
2.34268e-07
1.90641e-07
1.87183e-07
1.83142e-07
1.76891e-07
1.73008e-07
1.73138e-07
1.77519e-07
1.85149e-07
1.87492e-07
1.89889e-07
1.80715e-07
1.84989e-07
1.78387e-07
1.68959e-07
1.64162e-07
1.64337e-07
1.69501e-07
1.78712e-07
1.83566e-07
1.80231e-07
1.7541e-07
1.77551e-07
1.69364e-07
1.60248e-07
1.55257e-07
1.55445e-07
1.60461e-07
1.69335e-07
1.77308e-07
1.75308e-07
1.72054e-07
1.73213e-07
1.64344e-07
1.55412e-07
1.51168e-07
1.51217e-07
1.55396e-07
1.64417e-07
1.73262e-07
1.72072e-07
1.72015e-07
1.73172e-07
1.6435e-07
1.554e-07
1.51254e-07
1.51259e-07
1.55417e-07
1.64413e-07
1.73233e-07
1.7205e-07
1.75265e-07
1.77222e-07
1.69324e-07
1.60552e-07
1.55621e-07
1.55615e-07
1.60552e-07
1.69351e-07
1.77263e-07
1.75287e-07
1.80363e-07
1.83573e-07
1.78816e-07
1.69712e-07
1.64597e-07
1.64586e-07
1.69705e-07
1.78822e-07
1.83575e-07
1.80321e-07
1.90173e-07
1.87562e-07
1.85305e-07
1.77783e-07
1.7341e-07
1.73408e-07
1.77786e-07
1.85319e-07
1.87561e-07
1.90106e-07
2.34456e-07
1.9079e-07
1.80798e-07
1.75449e-07
1.7213e-07
1.72132e-07
1.75461e-07
1.80828e-07
1.90814e-07
2.34416e-07
1.9368e-07
1.90172e-07
1.73027e-07
1.66993e-07
1.63897e-07
1.63939e-07
1.67203e-07
1.73679e-07
1.90972e-07
1.93286e-07
1.90921e-07
1.79066e-07
1.75195e-07
1.69732e-07
1.66239e-07
1.66378e-07
1.70382e-07
1.77201e-07
1.79427e-07
1.90148e-07
1.73776e-07
1.77031e-07
1.71516e-07
1.62939e-07
1.58456e-07
1.58625e-07
1.63482e-07
1.71879e-07
1.75732e-07
1.73352e-07
1.67346e-07
1.70333e-07
1.63289e-07
1.54871e-07
1.50144e-07
1.50318e-07
1.55058e-07
1.63258e-07
1.70136e-07
1.67304e-07
1.63976e-07
1.66344e-07
1.58532e-07
1.50232e-07
1.46199e-07
1.46233e-07
1.5019e-07
1.58583e-07
1.66402e-07
1.64033e-07
1.63951e-07
1.66306e-07
1.58522e-07
1.50182e-07
1.46229e-07
1.46232e-07
1.50188e-07
1.58576e-07
1.66377e-07
1.6401e-07
1.67169e-07
1.70006e-07
1.63214e-07
1.55073e-07
1.5037e-07
1.50369e-07
1.55084e-07
1.63251e-07
1.70063e-07
1.67225e-07
1.73268e-07
1.75628e-07
1.71927e-07
1.63586e-07
1.58731e-07
1.58729e-07
1.63588e-07
1.71936e-07
1.7565e-07
1.73273e-07
1.90249e-07
1.79425e-07
1.77363e-07
1.70575e-07
1.66523e-07
1.66522e-07
1.70572e-07
1.7736e-07
1.79428e-07
1.90209e-07
1.93432e-07
1.90938e-07
1.73823e-07
1.67413e-07
1.64065e-07
1.64066e-07
1.67411e-07
1.73831e-07
1.9097e-07
1.93411e-07
1.01988e-07
1.93634e-07
1.68734e-07
1.60495e-07
1.57058e-07
1.57109e-07
1.60726e-07
1.69394e-07
1.94435e-07
1.01883e-07
1.94488e-07
1.72502e-07
1.67935e-07
1.63075e-07
1.59888e-07
1.60023e-07
1.63705e-07
1.69882e-07
1.72878e-07
1.93737e-07
1.69492e-07
1.6966e-07
1.65075e-07
1.5728e-07
1.53072e-07
1.53216e-07
1.5777e-07
1.654e-07
1.68413e-07
1.69121e-07
1.60732e-07
1.63528e-07
1.57547e-07
1.4978e-07
1.45292e-07
1.45436e-07
1.49896e-07
1.57443e-07
1.63305e-07
1.60709e-07
1.57047e-07
1.59874e-07
1.53036e-07
1.45318e-07
1.41476e-07
1.41486e-07
1.45223e-07
1.53021e-07
1.59882e-07
1.57088e-07
1.57055e-07
1.59849e-07
1.53007e-07
1.4522e-07
1.4145e-07
1.41448e-07
1.45204e-07
1.53019e-07
1.59881e-07
1.57083e-07
1.60598e-07
1.63232e-07
1.57407e-07
1.49843e-07
1.45367e-07
1.45369e-07
1.49854e-07
1.57426e-07
1.6326e-07
1.60631e-07
1.6891e-07
1.68291e-07
1.65392e-07
1.57737e-07
1.53149e-07
1.53152e-07
1.5774e-07
1.65383e-07
1.68297e-07
1.68924e-07
1.93628e-07
1.72835e-07
1.69986e-07
1.63749e-07
1.59998e-07
1.59997e-07
1.63732e-07
1.69952e-07
1.72818e-07
1.93603e-07
1.01932e-07
1.94427e-07
1.69551e-07
1.60832e-07
1.57116e-07
1.57111e-07
1.60808e-07
1.69519e-07
1.9443e-07
1.01941e-07
4.84538e-07
1.91754e-07
1.67422e-07
1.55777e-07
1.515e-07
1.51567e-07
1.56045e-07
1.68118e-07
1.92584e-07
4.84197e-07
1.92686e-07
1.67752e-07
1.61328e-07
1.56756e-07
1.53776e-07
1.53911e-07
1.57375e-07
1.63219e-07
1.68137e-07
1.92012e-07
1.68103e-07
1.62902e-07
1.58918e-07
1.51794e-07
1.47817e-07
1.47942e-07
1.52234e-07
1.59189e-07
1.61673e-07
1.67764e-07
1.55884e-07
1.5708e-07
1.51999e-07
1.44815e-07
1.40538e-07
1.40658e-07
1.44873e-07
1.51826e-07
1.56809e-07
1.55857e-07
1.51453e-07
1.5371e-07
1.47733e-07
1.40539e-07
1.36874e-07
1.36871e-07
1.40414e-07
1.47668e-07
1.53672e-07
1.51473e-07
1.51492e-07
1.53698e-07
1.47689e-07
1.40414e-07
1.36823e-07
1.36824e-07
1.40393e-07
1.47677e-07
1.537e-07
1.51496e-07
1.55827e-07
1.56816e-07
1.51801e-07
1.4478e-07
1.40535e-07
1.40545e-07
1.44802e-07
1.51817e-07
1.56826e-07
1.55842e-07
1.67542e-07
1.61582e-07
1.59115e-07
1.52086e-07
1.47775e-07
1.47787e-07
1.52105e-07
1.59115e-07
1.61592e-07
1.67567e-07
1.91748e-07
1.68058e-07
1.63198e-07
1.57254e-07
1.53776e-07
1.53781e-07
1.57251e-07
1.63175e-07
1.68056e-07
1.91764e-07
4.84197e-07
1.92603e-07
1.68206e-07
1.56011e-07
1.51499e-07
1.51497e-07
1.5599e-07
1.68165e-07
1.92591e-07
4.84369e-07
4.75562e-06
1.64842e-07
1.68217e-07
1.53116e-07
1.47512e-07
1.47567e-07
1.53345e-07
1.68844e-07
1.65439e-07
4.74908e-06
1.6559e-07
1.64829e-07
1.55496e-07
1.50757e-07
1.47862e-07
1.47981e-07
1.51315e-07
1.57257e-07
1.65119e-07
1.64997e-07
1.68675e-07
1.56881e-07
1.52973e-07
1.46402e-07
1.42614e-07
1.42715e-07
1.46779e-07
1.53158e-07
1.55607e-07
1.6828e-07
1.53043e-07
1.50959e-07
1.46572e-07
1.39909e-07
1.35817e-07
1.35922e-07
1.39926e-07
1.46343e-07
1.50632e-07
1.52967e-07
1.47407e-07
1.47774e-07
1.4254e-07
1.35838e-07
1.32341e-07
1.32334e-07
1.35707e-07
1.42458e-07
1.47713e-07
1.47403e-07
1.47437e-07
1.47751e-07
1.42485e-07
1.35714e-07
1.32306e-07
1.32312e-07
1.35703e-07
1.42478e-07
1.47757e-07
1.47442e-07
1.53e-07
1.50681e-07
1.46322e-07
1.39845e-07
1.35837e-07
1.35854e-07
1.3988e-07
1.46354e-07
1.50707e-07
1.53026e-07
1.68122e-07
1.55563e-07
1.53035e-07
1.46593e-07
1.42566e-07
1.42583e-07
1.4663e-07
1.53064e-07
1.55602e-07
1.68183e-07
1.6466e-07
1.6501e-07
1.57096e-07
1.51083e-07
1.47822e-07
1.47835e-07
1.51106e-07
1.57116e-07
1.65054e-07
1.64765e-07
4.74899e-06
1.65452e-07
1.68766e-07
1.53153e-07
1.47435e-07
1.47442e-07
1.5316e-07
1.68767e-07
1.65448e-07
4.74937e-06
2.58042e-05
1.09463e-07
1.66917e-07
1.52062e-07
1.45075e-07
1.45117e-07
1.52249e-07
1.67434e-07
1.09826e-07
2.57743e-05
1.09957e-07
1.62755e-07
1.50726e-07
1.45221e-07
1.42296e-07
1.4239e-07
1.45697e-07
1.52313e-07
1.62867e-07
1.09507e-07
1.67197e-07
1.5202e-07
1.47437e-07
1.4127e-07
1.37636e-07
1.37715e-07
1.41566e-07
1.47486e-07
1.50619e-07
1.66691e-07
1.5198e-07
1.45469e-07
1.41488e-07
1.35263e-07
1.31326e-07
1.31413e-07
1.35231e-07
1.41168e-07
1.45018e-07
1.51795e-07
1.45053e-07
1.42335e-07
1.37687e-07
1.31421e-07
1.28066e-07
1.28052e-07
1.31263e-07
1.37541e-07
1.42186e-07
1.44975e-07
1.45051e-07
1.42284e-07
1.37621e-07
1.31319e-07
1.28073e-07
1.2807e-07
1.31279e-07
1.37558e-07
1.42215e-07
1.45003e-07
1.51917e-07
1.45136e-07
1.41207e-07
1.35231e-07
1.31437e-07
1.31442e-07
1.35232e-07
1.41181e-07
1.45092e-07
1.51889e-07
1.66736e-07
1.50682e-07
1.47408e-07
1.41454e-07
1.37675e-07
1.3768e-07
1.41462e-07
1.47394e-07
1.50656e-07
1.66725e-07
1.09406e-07
1.6283e-07
1.52131e-07
1.45491e-07
1.4231e-07
1.42315e-07
1.45497e-07
1.52123e-07
1.62818e-07
1.09441e-07
2.57747e-05
1.09848e-07
1.67243e-07
1.52012e-07
1.45025e-07
1.45033e-07
1.52031e-07
1.67263e-07
1.09826e-07
2.57742e-05
9.4807e-05
2.28498e-07
1.53584e-07
1.50761e-07
1.43553e-07
1.43553e-07
1.50831e-07
1.53834e-07
2.29048e-07
9.47169e-05
2.29041e-07
1.58071e-07
1.47065e-07
1.40169e-07
1.37101e-07
1.37174e-07
1.40576e-07
1.48499e-07
1.57993e-07
2.2806e-07
1.53726e-07
1.48359e-07
1.42209e-07
1.36311e-07
1.32831e-07
1.32896e-07
1.36555e-07
1.42161e-07
1.46839e-07
1.53094e-07
1.5078e-07
1.40548e-07
1.36613e-07
1.30783e-07
1.27e-07
1.27078e-07
1.30726e-07
1.3624e-07
1.39997e-07
1.50435e-07
1.43654e-07
1.37294e-07
1.33027e-07
1.27175e-07
1.23959e-07
1.2394e-07
1.27003e-07
1.32839e-07
1.37063e-07
1.43454e-07
1.43604e-07
1.37215e-07
1.32961e-07
1.27107e-07
1.24014e-07
1.23999e-07
1.27037e-07
1.32847e-07
1.37061e-07
1.43445e-07
1.50652e-07
1.40176e-07
1.36349e-07
1.30836e-07
1.27231e-07
1.27218e-07
1.30788e-07
1.36254e-07
1.40032e-07
1.50494e-07
1.53386e-07
1.47047e-07
1.42206e-07
1.366e-07
1.33019e-07
1.33004e-07
1.36556e-07
1.42118e-07
1.46899e-07
1.53199e-07
2.28092e-07
1.58133e-07
1.48431e-07
1.40516e-07
1.37227e-07
1.37212e-07
1.40472e-07
1.48345e-07
1.57978e-07
2.28203e-07
9.47156e-05
2.28992e-07
1.53718e-07
1.50693e-07
1.43529e-07
1.43516e-07
1.50656e-07
1.53647e-07
2.29046e-07
9.47159e-05
0.000260857
1.62696e-06
1.19216e-07
1.44215e-07
1.40645e-07
1.40672e-07
1.44366e-07
1.19516e-07
1.63091e-06
0.000260679
1.63039e-06
1.44133e-07
1.44376e-07
1.35766e-07
1.32472e-07
1.32577e-07
1.36264e-07
1.45915e-07
1.44184e-07
1.62451e-06
1.19339e-07
1.45776e-07
1.37443e-07
1.31666e-07
1.28383e-07
1.28481e-07
1.31993e-07
1.375e-07
1.44369e-07
1.19008e-07
1.44423e-07
1.36307e-07
1.32034e-07
1.2659e-07
1.23009e-07
1.23116e-07
1.2662e-07
1.31774e-07
1.35855e-07
1.44179e-07
1.40831e-07
1.32741e-07
1.28635e-07
1.23207e-07
1.20164e-07
1.20171e-07
1.23107e-07
1.2854e-07
1.32598e-07
1.40703e-07
1.40762e-07
1.32647e-07
1.28573e-07
1.23164e-07
1.20244e-07
1.20244e-07
1.23143e-07
1.28534e-07
1.32568e-07
1.4066e-07
1.44291e-07
1.35918e-07
1.3182e-07
1.26728e-07
1.23315e-07
1.23314e-07
1.26717e-07
1.3179e-07
1.35848e-07
1.44182e-07
1.19265e-07
1.44532e-07
1.37562e-07
1.32109e-07
1.28697e-07
1.28692e-07
1.32102e-07
1.37539e-07
1.44452e-07
1.19154e-07
1.62396e-06
1.44315e-07
1.45909e-07
1.36322e-07
1.32743e-07
1.3274e-07
1.36321e-07
1.45901e-07
1.44258e-07
1.62469e-06
0.000260661
1.62939e-06
1.1946e-07
1.44383e-07
1.40769e-07
1.40756e-07
1.44353e-07
1.1944e-07
1.63028e-06
0.000260672
0.000573468
8.23911e-06
1.09687e-07
1.25762e-07
1.31651e-07
1.31685e-07
1.25928e-07
1.10072e-07
8.25375e-06
0.000573203
8.25498e-06
1.17504e-07
1.42145e-07
1.3219e-07
1.2851e-07
1.2863e-07
1.32733e-07
1.43748e-07
1.17584e-07
8.22645e-06
1.10001e-07
1.43652e-07
1.3332e-07
1.27387e-07
1.24269e-07
1.24386e-07
1.27771e-07
1.33465e-07
1.42331e-07
1.09621e-07
1.26062e-07
1.32787e-07
1.27754e-07
1.22645e-07
1.19273e-07
1.19398e-07
1.22736e-07
1.2759e-07
1.32421e-07
1.25919e-07
1.31762e-07
1.28699e-07
1.24448e-07
1.19423e-07
1.16557e-07
1.16579e-07
1.19374e-07
1.24432e-07
1.28639e-07
1.3171e-07
1.31656e-07
1.28572e-07
1.24365e-07
1.1936e-07
1.16605e-07
1.16615e-07
1.19378e-07
1.24399e-07
1.28581e-07
1.31632e-07
1.25812e-07
1.32305e-07
1.27507e-07
1.22747e-07
1.19509e-07
1.19518e-07
1.22774e-07
1.27554e-07
1.32335e-07
1.25796e-07
1.09618e-07
1.42294e-07
1.33432e-07
1.27824e-07
1.2452e-07
1.24527e-07
1.27858e-07
1.33495e-07
1.4233e-07
1.09655e-07
8.22707e-06
1.17517e-07
1.43677e-07
1.32763e-07
1.28722e-07
1.28735e-07
1.32816e-07
1.43778e-07
1.17587e-07
8.22681e-06
0.000573158
8.24953e-06
1.09877e-07
1.25909e-07
1.31692e-07
1.31702e-07
1.25957e-07
1.09889e-07
8.25026e-06
0.000573178
0.00105904
2.99343e-05
4.25284e-07
1.00232e-07
1.11982e-07
1.1202e-07
1.00389e-07
4.26617e-07
2.99754e-05
0.00105879
2.99816e-05
9.99289e-08
1.3855e-07
1.29259e-07
1.25174e-07
1.25296e-07
1.29802e-07
1.40124e-07
9.98976e-08
2.98974e-05
4.26868e-07
1.4008e-07
1.30009e-07
1.2354e-07
1.20517e-07
1.20638e-07
1.23941e-07
1.30194e-07
1.38833e-07
4.24707e-07
1.00561e-07
1.29818e-07
1.23857e-07
1.19003e-07
1.15837e-07
1.15964e-07
1.19109e-07
1.23731e-07
1.2949e-07
1.00443e-07
1.11992e-07
1.25235e-07
1.20574e-07
1.15913e-07