/*--------------------------------*- C++ -*----------------------------------*\
| =========                 |                                                 |
| \\      /  F ield         | OpenFOAM: The Open Source CFD Toolbox           |
|  \\    /   O peration     | Version:  2406                                  |
|   \\  /    A nd           | Website:  www.openfoam.com                      |
|    \\/     M anipulation  |                                                 |
\*---------------------------------------------------------------------------*/
FoamFile
{
    version     2.0;
    format      ascii;
    arch        "LSB;label=32;scalar=64";
    class       volSymmTensorField;
    location    "200";
    object      turbulenceProperties:devReff;
}
// * * * * * * * * * * * * * * * * * * * * * * * * * * * * * * * * * * * * * //

dimensions      [0 2 -2 0 0 0 0];

internalField   nonuniform List<symmTensor> 
25000
(
(4.13026e-06 -4.015e-06 -1.59515e-06 4.12497e-06 -1.59395e-06 -8.25523e-06)
(6.13777e-06 1.84949e-06 -1.11262e-06 2.50566e-06 -1.41015e-06 -8.64344e-06)
(4.7179e-06 1.11031e-06 -7.83965e-07 3.51827e-06 -1.44972e-06 -8.23617e-06)
(4.29444e-06 6.88293e-07 -4.66525e-07 3.89391e-06 -1.45449e-06 -8.18835e-06)
(4.09054e-06 2.39337e-07 -1.55186e-07 4.0635e-06 -1.45508e-06 -8.15404e-06)
(4.0913e-06 -2.41236e-07 1.55359e-07 4.06304e-06 -1.45513e-06 -8.15435e-06)
(4.29835e-06 -6.90722e-07 4.66418e-07 3.89179e-06 -1.4547e-06 -8.19014e-06)
(4.72777e-06 -1.11536e-06 7.82737e-07 3.51288e-06 -1.44994e-06 -8.24064e-06)
(6.13937e-06 -1.85238e-06 1.11401e-06 2.5011e-06 -1.4112e-06 -8.64047e-06)
(4.11054e-06 4.02919e-06 1.59515e-06 4.11174e-06 -1.59471e-06 -8.22228e-06)
(2.50781e-06 1.85209e-06 -1.41154e-06 6.13614e-06 -1.11211e-06 -8.64395e-06)
(4.36117e-06 1.26068e-06 -1.10051e-06 4.3578e-06 -1.09964e-06 -8.71897e-06)
(3.93934e-06 8.3893e-07 -8.15924e-07 4.12702e-06 -1.11887e-06 -8.06636e-06)
(3.78957e-06 4.86359e-07 -4.93355e-07 3.93825e-06 -1.13808e-06 -7.72782e-06)
(3.72657e-06 1.58697e-07 -1.64691e-07 3.83838e-06 -1.14843e-06 -7.56495e-06)
(3.72723e-06 -1.60969e-07 1.64673e-07 3.8381e-06 -1.14849e-06 -7.56532e-06)
(3.79154e-06 -4.89183e-07 4.93037e-07 3.9376e-06 -1.13826e-06 -7.72913e-06)
(3.94211e-06 -8.45756e-07 8.15322e-07 4.12813e-06 -1.11932e-06 -8.07024e-06)
(4.35934e-06 -1.27603e-06 1.09943e-06 4.36096e-06 -1.09886e-06 -8.7203e-06)
(2.49967e-06 -1.85208e-06 1.41137e-06 6.14002e-06 -1.11327e-06 -8.63968e-06)
(3.51713e-06 1.11408e-06 -1.45054e-06 4.71701e-06 -7.83744e-07 -8.23414e-06)
(4.12941e-06 8.40953e-07 -1.12001e-06 3.93864e-06 -8.15676e-07 -8.06805e-06)
(3.77395e-06 5.70575e-07 -8.24833e-07 3.77212e-06 -8.24241e-07 -7.54608e-06)
(3.59764e-06 3.38859e-07 -5.01523e-07 3.6391e-06 -8.3056e-07 -7.23674e-06)
(3.51761e-06 1.10855e-07 -1.67854e-07 3.57099e-06 -8.3448e-07 -7.08861e-06)
(3.51784e-06 -1.14037e-07 1.67746e-07 3.57104e-06 -8.345e-07 -7.08887e-06)
(3.59803e-06 -3.42754e-07 5.01302e-07 3.63966e-06 -8.30596e-07 -7.23769e-06)
(3.77286e-06 -5.75805e-07 8.24509e-07 3.77381e-06 -8.24011e-07 -7.54666e-06)
(4.12558e-06 -8.45276e-07 1.11951e-06 3.94216e-06 -8.14568e-07 -8.06775e-06)
(3.51188e-06 -1.11501e-06 1.4503e-06 4.72901e-06 -7.82241e-07 -8.24088e-06)
(3.89217e-06 6.90558e-07 -1.45509e-06 4.29473e-06 -4.66482e-07 -8.1869e-06)
(3.93841e-06 4.88391e-07 -1.13871e-06 3.78865e-06 -4.93081e-07 -7.72707e-06)
(3.64018e-06 3.39702e-07 -8.31138e-07 3.59651e-06 -5.01154e-07 -7.23669e-06)
(3.46339e-06 2.05138e-07 -5.05003e-07 3.46237e-06 -5.04579e-07 -6.92576e-06)
(3.37961e-06 6.72641e-08 -1.69145e-07 3.39473e-06 -5.06432e-07 -6.77434e-06)
(3.37958e-06 -7.01909e-08 1.69086e-07 3.39516e-06 -5.06429e-07 -6.77474e-06)
(3.46295e-06 -2.08205e-07 5.049e-07 3.46353e-06 -5.04489e-07 -6.92647e-06)
(3.6388e-06 -3.42484e-07 8.31059e-07 3.5989e-06 -5.00867e-07 -7.23771e-06)
(3.93643e-06 -4.88845e-07 1.1388e-06 3.79306e-06 -4.92624e-07 -7.72949e-06)
(3.89069e-06 -6.90231e-07 1.45509e-06 4.29998e-06 -4.66002e-07 -8.19067e-06)
(4.06171e-06 2.4092e-07 -1.45547e-06 4.09134e-06 -1.55204e-07 -8.15305e-06)
(3.83767e-06 1.60377e-07 -1.14892e-06 3.72646e-06 -1.64556e-07 -7.56413e-06)
(3.57131e-06 1.119e-07 -8.34959e-07 3.51694e-06 -1.67611e-07 -7.08825e-06)
(3.39548e-06 6.77089e-08 -5.06845e-07 3.37891e-06 -1.68856e-07 -6.77439e-06)
(3.31076e-06 2.18686e-08 -1.6983e-07 3.31015e-06 -1.69522e-07 -6.62091e-06)
(3.31063e-06 -2.40341e-08 1.69819e-07 3.31051e-06 -1.69506e-07 -6.62114e-06)
(3.39492e-06 -6.97044e-08 5.06828e-07 3.37997e-06 -1.68781e-07 -6.7749e-06)
(3.57053e-06 -1.13304e-07 8.34996e-07 3.519e-06 -1.67459e-07 -7.08953e-06)
(3.83706e-06 -1.60401e-07 1.14903e-06 3.72913e-06 -1.64368e-07 -7.5662e-06)
(4.06172e-06 -2.406e-07 1.45556e-06 4.09347e-06 -1.55028e-07 -8.15519e-06)
(4.06168e-06 -2.40214e-07 -1.45543e-06 4.09204e-06 1.55302e-07 -8.15372e-06)
(3.83723e-06 -1.59605e-07 -1.14886e-06 3.72751e-06 1.64726e-07 -7.56474e-06)
(3.57084e-06 -1.13008e-07 -8.34897e-07 3.51765e-06 1.67888e-07 -7.08849e-06)
(3.39534e-06 -6.96196e-08 -5.06782e-07 3.37905e-06 1.69276e-07 -6.77439e-06)
(3.31096e-06 -2.38127e-08 -1.69801e-07 3.31012e-06 1.70038e-07 -6.62108e-06)
(3.31085e-06 2.23665e-08 1.69821e-07 3.31041e-06 1.70046e-07 -6.62126e-06)
(3.39516e-06 6.83871e-08 5.06811e-07 3.37985e-06 1.693e-07 -6.77501e-06)
(3.57074e-06 1.12328e-07 8.34974e-07 3.51889e-06 1.67939e-07 -7.08963e-06)
(3.83723e-06 1.59731e-07 1.14901e-06 3.72903e-06 1.648e-07 -7.56626e-06)
(4.0618e-06 2.40298e-07 1.45555e-06 4.09343e-06 1.55412e-07 -8.15523e-06)
(3.8906e-06 -6.89888e-07 -1.45488e-06 4.29909e-06 4.66336e-07 -8.18969e-06)
(3.93645e-06 -4.8815e-07 -1.13856e-06 3.79204e-06 4.9305e-07 -7.7285e-06)
(3.63911e-06 -3.4192e-07 -8.309e-07 3.59793e-06 5.01348e-07 -7.23704e-06)
(3.46359e-06 -2.07662e-07 -5.04811e-07 3.46266e-06 5.05018e-07 -6.92625e-06)
(3.38036e-06 -6.94257e-08 -1.69063e-07 3.3946e-06 5.06981e-07 -6.77496e-06)
(3.38037e-06 6.84927e-08 1.69086e-07 3.39475e-06 5.06975e-07 -6.77512e-06)
(3.46364e-06 2.06936e-07 5.04854e-07 3.46313e-06 5.05008e-07 -6.92678e-06)
(3.6394e-06 3.41543e-07 8.30992e-07 3.59855e-06 5.01343e-07 -7.23794e-06)
(3.93697e-06 4.88218e-07 1.13873e-06 3.79275e-06 4.93055e-07 -7.72972e-06)
(3.89092e-06 6.89934e-07 1.45507e-06 4.29985e-06 4.66393e-07 -8.19077e-06)
(3.5118e-06 -1.11491e-06 -1.45004e-06 4.72849e-06 7.82646e-07 -8.24028e-06)
(4.12574e-06 -8.44756e-07 -1.1192e-06 3.94143e-06 8.15031e-07 -8.06717e-06)
(3.77326e-06 -5.75236e-07 -8.24305e-07 3.77303e-06 8.24528e-07 -7.54629e-06)
(3.59898e-06 -3.42107e-07 -5.01176e-07 3.63878e-06 8.31135e-07 -7.23776e-06)
(3.51923e-06 -1.1306e-07 -1.67719e-07 3.57015e-06 8.35059e-07 -7.08937e-06)
(3.51928e-06 1.12461e-07 1.67728e-07 3.57023e-06 8.35048e-07 -7.08951e-06)
(3.59925e-06 3.41619e-07 5.01211e-07 3.63894e-06 8.31105e-07 -7.2382e-06)
(3.77387e-06 5.74983e-07 8.24396e-07 3.77318e-06 8.2448e-07 -7.54705e-06)
(4.12647e-06 8.44746e-07 1.1194e-06 3.94162e-06 8.14995e-07 -8.06809e-06)
(3.51233e-06 1.11468e-06 1.45027e-06 4.72869e-06 7.82645e-07 -8.24102e-06)
(2.4996e-06 -1.85199e-06 -1.41108e-06 6.1395e-06 1.11379e-06 -8.6391e-06)
(4.35981e-06 -1.27575e-06 -1.09907e-06 4.36003e-06 1.09938e-06 -8.71983e-06)
(3.94286e-06 -8.45295e-07 -8.15091e-07 4.12715e-06 1.11984e-06 -8.07e-06)
(3.79295e-06 -4.8864e-07 -4.92898e-07 3.9364e-06 1.13878e-06 -7.72935e-06)
(3.72929e-06 -1.60263e-07 -1.64609e-07 3.83675e-06 1.14902e-06 -7.56604e-06)
(3.72939e-06 1.59837e-07 1.64596e-07 3.83676e-06 1.14901e-06 -7.56615e-06)
(3.79331e-06 4.88277e-07 4.92904e-07 3.93637e-06 1.13874e-06 -7.72968e-06)
(3.94358e-06 8.45015e-07 8.15166e-07 4.12704e-06 1.11977e-06 -8.07062e-06)
(4.3607e-06 1.27546e-06 1.09928e-06 4.35986e-06 1.09929e-06 -8.72055e-06)
(2.50049e-06 1.85157e-06 1.41134e-06 6.13916e-06 1.1137e-06 -8.63965e-06)
(4.10994e-06 4.02836e-06 -1.59476e-06 4.11224e-06 1.59514e-06 -8.22218e-06)
(6.13981e-06 -1.85248e-06 -1.11364e-06 2.50066e-06 1.41152e-06 -8.64047e-06)
(4.72859e-06 -1.11498e-06 -7.8252e-07 3.51209e-06 1.45026e-06 -8.24068e-06)
(4.29988e-06 -6.90177e-07 -4.66264e-07 3.89058e-06 1.45502e-06 -8.19046e-06)
(4.09358e-06 -2.40586e-07 -1.55259e-07 4.06152e-06 1.45548e-06 -8.1551e-06)
(4.09368e-06 2.40292e-07 1.55219e-07 4.06151e-06 1.45548e-06 -8.15519e-06)
(4.30024e-06 6.89914e-07 4.6624e-07 3.89055e-06 1.455e-06 -8.19079e-06)
(4.72933e-06 1.11469e-06 7.82544e-07 3.5118e-06 1.45021e-06 -8.24113e-06)
(6.14077e-06 1.85177e-06 1.1138e-06 2.50002e-06 1.41144e-06 -8.64079e-06)
(4.11179e-06 -4.02934e-06 1.59503e-06 4.11058e-06 1.59496e-06 -8.22237e-06)
(5.95053e-06 -3.63278e-06 3.26469e-06 5.93552e-06 3.26507e-06 -1.1886e-05)
(8.36076e-06 1.88026e-06 2.28446e-06 3.60123e-06 3.01863e-06 -1.1962e-05)
(6.56132e-06 5.03992e-07 1.62389e-06 5.14022e-06 2.73923e-06 -1.17015e-05)
(6.2275e-06 4.68767e-07 9.7098e-07 5.42928e-06 2.62387e-06 -1.16568e-05)
(6.06775e-06 1.70476e-07 3.21378e-07 5.56291e-06 2.55726e-06 -1.16307e-05)
(6.06739e-06 -1.73378e-07 -3.27017e-07 5.56324e-06 2.55736e-06 -1.16306e-05)
(6.22554e-06 -4.71929e-07 -9.77166e-07 5.43067e-06 2.62425e-06 -1.16562e-05)
(6.57919e-06 -5.14003e-07 -1.63499e-06 5.13473e-06 2.74065e-06 -1.17139e-05)
(8.36337e-06 -1.89128e-06 -2.30181e-06 3.61043e-06 3.02306e-06 -1.19738e-05)
(5.92378e-06 3.64463e-06 -3.26592e-06 5.92615e-06 3.26551e-06 -1.18499e-05)
(3.60768e-06 1.88521e-06 3.02014e-06 8.35792e-06 2.28491e-06 -1.19656e-05)
(5.96033e-06 9.81121e-07 2.16686e-06 5.956e-06 2.16646e-06 -1.19163e-05)
(5.74789e-06 4.23452e-07 1.48163e-06 5.84553e-06 2.0391e-06 -1.15934e-05)
(5.87166e-06 1.94556e-07 8.79292e-07 5.59955e-06 1.95228e-06 -1.14712e-05)
(5.8804e-06 5.79438e-08 2.89087e-07 5.49645e-06 1.90643e-06 -1.13769e-05)
(5.87974e-06 -6.12475e-08 -2.9453e-07 5.49698e-06 1.90673e-06 -1.13767e-05)
(5.87e-06 -1.97538e-07 -8.85374e-07 5.60165e-06 1.95332e-06 -1.14716e-05)
(5.75136e-06 -4.24496e-07 -1.49037e-06 5.8528e-06 2.04296e-06 -1.16042e-05)
(5.9623e-06 -1.01099e-06 -2.17516e-06 5.96426e-06 2.1744e-06 -1.19266e-05)
(3.60727e-06 -1.8907e-06 -3.02243e-06 8.36258e-06 2.3002e-06 -1.19698e-05)
(5.14144e-06 5.08131e-07 2.73945e-06 6.55947e-06 1.62395e-06 -1.17009e-05)
(5.85259e-06 4.25762e-07 2.04115e-06 5.74979e-06 1.48262e-06 -1.16024e-05)
(5.64271e-06 3.64684e-07 1.39663e-06 5.64022e-06 1.39629e-06 -1.12829e-05)
(5.6889e-06 2.08815e-07 8.24762e-07 5.49354e-06 1.33409e-06 -1.11824e-05)
(5.68704e-06 6.54471e-08 2.71294e-07 5.43649e-06 1.30328e-06 -1.11235e-05)
(5.68666e-06 -6.79446e-08 -2.75757e-07 5.43708e-06 1.3038e-06 -1.11237e-05)
(5.68873e-06 -2.10418e-07 -8.29464e-07 5.4958e-06 1.33592e-06 -1.11845e-05)
(5.64232e-06 -3.64033e-07 -1.40099e-06 5.64234e-06 1.39968e-06 -1.12847e-05)
(5.84687e-06 -4.24058e-07 -2.042e-06 5.74731e-06 1.48774e-06 -1.15942e-05)
(5.13297e-06 -5.13468e-07 -2.74079e-06 6.57984e-06 1.63337e-06 -1.17128e-05)
(5.42891e-06 4.71407e-07 2.62361e-06 6.22715e-06 9.71263e-07 -1.16561e-05)
(5.60087e-06 1.96626e-07 1.95248e-06 5.87039e-06 8.79326e-07 -1.14713e-05)
(5.49573e-06 2.09703e-07 1.33449e-06 5.68773e-06 8.24667e-07 -1.11835e-05)
(5.52022e-06 1.35462e-07 7.83146e-07 5.5187e-06 7.82901e-07 -1.10389e-05)
(5.52381e-06 4.35902e-08 2.57343e-07 5.43968e-06 7.6127e-07 -1.09635e-05)
(5.52399e-06 -4.50897e-08 -2.60605e-07 5.44047e-06 7.61858e-07 -1.09645e-05)
(5.5201e-06 -1.36372e-07 -7.86315e-07 5.51963e-06 7.84573e-07 -1.10397e-05)
(5.49541e-06 -2.10198e-07 -1.33709e-06 5.68802e-06 8.27545e-07 -1.11834e-05)
(5.60051e-06 -1.9734e-07 -1.95402e-06 5.87057e-06 8.83362e-07 -1.14711e-05)
(5.42908e-06 -4.71349e-07 -2.62456e-06 6.22699e-06 9.75064e-07 -1.16561e-05)
(5.56203e-06 1.72375e-07 2.55672e-06 6.06812e-06 3.21754e-07 -1.16301e-05)
(5.49659e-06 5.95446e-08 1.90632e-06 5.87983e-06 2.8922e-07 -1.13764e-05)
(5.43742e-06 6.64197e-08 1.30341e-06 5.68599e-06 2.71239e-07 -1.11234e-05)
(5.44121e-06 4.39913e-08 7.61518e-07 5.52299e-06 2.57191e-07 -1.09642e-05)
(5.44428e-06 1.40142e-08 2.50098e-07 5.44325e-06 2.49901e-07 -1.08875e-05)
(5.44428e-06 -1.51833e-08 -2.52338e-07 5.44343e-06 2.50333e-07 -1.08877e-05)
(5.44091e-06 -4.49233e-08 -7.63609e-07 5.52298e-06 2.58471e-07 -1.09639e-05)
(5.43765e-06 -6.74277e-08 -1.30526e-06 5.68633e-06 2.73372e-07 -1.1124e-05)
(5.49649e-06 -6.06011e-08 -1.90764e-06 5.88049e-06 2.91892e-07 -1.1377e-05)
(5.56164e-06 -1.72478e-07 -2.55773e-06 6.06929e-06 3.24279e-07 -1.16309e-05)
(5.56234e-06 -1.72026e-07 2.55669e-06 6.06787e-06 -3.26624e-07 -1.16302e-05)
(5.49683e-06 -5.99988e-08 1.90642e-06 5.87963e-06 -2.94333e-07 -1.13765e-05)
(5.43744e-06 -6.70488e-08 1.30375e-06 5.68605e-06 -2.7574e-07 -1.11235e-05)
(5.44084e-06 -4.46011e-08 7.61916e-07 5.52281e-06 -2.60693e-07 -1.09637e-05)
(5.44429e-06 -1.4999e-08 2.50504e-07 5.44341e-06 -2.52501e-07 -1.08877e-05)
(5.44431e-06 1.39134e-08 -2.52015e-07 5.4435e-06 -2.52192e-07 -1.08878e-05)
(5.441e-06 4.36052e-08 -7.63376e-07 5.52298e-06 -2.59778e-07 -1.0964e-05)
(5.43779e-06 6.62096e-08 -1.3051e-06 5.68628e-06 -2.74293e-07 -1.11241e-05)
(5.49668e-06 5.95696e-08 -1.90755e-06 5.88042e-06 -2.92571e-07 -1.13771e-05)
(5.56171e-06 1.72041e-07 -2.55768e-06 6.06931e-06 -3.24854e-07 -1.1631e-05)
(5.42975e-06 -4.70789e-07 2.62343e-06 6.22612e-06 -9.76814e-07 -1.16559e-05)
(5.60092e-06 -1.96576e-07 1.95277e-06 5.86989e-06 -8.85133e-07 -1.14708e-05)
(5.49531e-06 -2.09707e-07 1.33559e-06 5.68782e-06 -8.29327e-07 -1.11831e-05)
(5.52019e-06 -1.35929e-07 7.84593e-07 5.51949e-06 -7.86373e-07 -1.10397e-05)
(5.5241e-06 -4.47516e-08 2.58617e-07 5.44058e-06 -7.63784e-07 -1.09647e-05)
(5.52417e-06 4.36777e-08 -2.59634e-07 5.44061e-06 -7.63577e-07 -1.09648e-05)
(5.52043e-06 1.35003e-07 -7.85614e-07 5.51958e-06 -7.85766e-07 -1.104e-05)
(5.49579e-06 2.0899e-07 -1.33662e-06 5.68791e-06 -8.28385e-07 -1.11837e-05)
(5.60108e-06 1.96383e-07 -1.95377e-06 5.87036e-06 -8.83982e-07 -1.14714e-05)
(5.42932e-06 4.70963e-07 -2.62442e-06 6.22703e-06 -9.75591e-07 -1.16564e-05)
(5.13351e-06 -5.13166e-07 2.73962e-06 6.57959e-06 -1.63465e-06 -1.17131e-05)
(5.84736e-06 -4.2347e-07 2.04069e-06 5.74691e-06 -1.48899e-06 -1.15943e-05)
(5.64233e-06 -3.6359e-07 1.39941e-06 5.64221e-06 -1.40095e-06 -1.12845e-05)
(5.6891e-06 -2.10008e-07 8.27599e-07 5.49554e-06 -1.33725e-06 -1.11846e-05)
(5.68701e-06 -6.7282e-08 2.73459e-07 5.43699e-06 -1.30532e-06 -1.1124e-05)
(5.6871e-06 6.62519e-08 -2.74153e-07 5.43701e-06 -1.30518e-06 -1.11241e-05)
(5.68942e-06 2.09037e-07 -8.28335e-07 5.49553e-06 -1.33687e-06 -1.1185e-05)
(5.64306e-06 3.62903e-07 -1.40024e-06 5.64206e-06 -1.40036e-06 -1.12851e-05)
(5.84787e-06 4.23244e-07 -2.04158e-06 5.74693e-06 -1.48824e-06 -1.15948e-05)
(5.1334e-06 5.13208e-07 -2.74055e-06 6.57987e-06 -1.63377e-06 -1.17133e-05)
(3.60786e-06 -1.88989e-06 3.02119e-06 8.36184e-06 -2.30091e-06 -1.19697e-05)
(5.96348e-06 -1.0108e-06 2.17379e-06 5.96293e-06 -2.17507e-06 -1.19264e-05)
(5.75198e-06 -4.24391e-07 1.48869e-06 5.85178e-06 -2.04365e-06 -1.16038e-05)
(5.87121e-06 -1.97334e-07 8.83342e-07 5.6004e-06 -1.95409e-06 -1.14716e-05)
(5.8811e-06 -6.05645e-08 2.9196e-07 5.49586e-06 -1.90762e-06 -1.1377e-05)
(5.88116e-06 5.95806e-08 -2.92451e-07 5.49588e-06 -1.90755e-06 -1.1377e-05)
(5.87153e-06 1.96344e-07 -8.83902e-07 5.60041e-06 -1.95387e-06 -1.14719e-05)
(5.75282e-06 4.23494e-07 -1.48938e-06 5.8516e-06 -2.04331e-06 -1.16044e-05)
(5.96421e-06 1.01015e-06 -2.17456e-06 5.96276e-06 -2.17462e-06 -1.1927e-05)
(3.60845e-06 1.88989e-06 -3.02198e-06 8.3614e-06 -2.30031e-06 -1.19698e-05)
(5.92414e-06 3.64528e-06 3.26471e-06 5.925e-06 -3.26573e-06 -1.18491e-05)
(8.36466e-06 -1.89145e-06 2.30036e-06 3.60842e-06 -3.02325e-06 -1.19731e-05)
(6.58039e-06 -5.13686e-07 1.63316e-06 5.13273e-06 -2.74082e-06 -1.17131e-05)
(6.22757e-06 -4.71508e-07 9.75006e-07 5.42841e-06 -2.62446e-06 -1.1656e-05)
(6.06992e-06 -1.7262e-07 3.24354e-07 5.56102e-06 -2.55764e-06 -1.16309e-05)
(6.06993e-06 1.71911e-07 -3.24725e-07 5.5611e-06 -2.55759e-06 -1.1631e-05)
(6.2277e-06 4.70767e-07 -9.75459e-07 5.42865e-06 -2.62432e-06 -1.16563e-05)
(6.58108e-06 5.12834e-07 -1.63377e-06 5.13275e-06 -2.7406e-06 -1.17138e-05)
(8.36566e-06 1.89009e-06 -2.30103e-06 3.60806e-06 -3.02297e-06 -1.19737e-05)
(5.92612e-06 -3.64597e-06 -3.26527e-06 5.92335e-06 -3.26535e-06 -1.18495e-05)
(5.15417e-06 -9.93206e-07 4.52895e-06 5.13306e-06 4.52748e-06 -1.02872e-05)
(6.29362e-06 1.11106e-06 3.16087e-06 3.68434e-06 4.0777e-06 -9.97796e-06)
(5.0973e-06 -2.83958e-08 2.24191e-06 4.87172e-06 3.88849e-06 -9.96902e-06)
(4.93111e-06 2.5095e-07 1.33882e-06 4.9305e-06 3.81179e-06 -9.86161e-06)
(4.83556e-06 6.59121e-08 4.45516e-07 5.00559e-06 3.75165e-06 -9.84114e-06)
(4.83643e-06 -6.77816e-08 -4.53265e-07 5.00526e-06 3.75203e-06 -9.84169e-06)
(4.92724e-06 -2.52074e-07 -1.34631e-06 4.93208e-06 3.81298e-06 -9.85931e-06)
(5.10221e-06 2.67234e-08 -2.25299e-06 4.86952e-06 3.89138e-06 -9.97173e-06)
(6.29512e-06 -1.12418e-06 -3.18227e-06 3.69834e-06 4.08608e-06 -9.99346e-06)
(5.14567e-06 9.75916e-07 -4.53369e-06 5.14852e-06 4.53226e-06 -1.02942e-05)
(3.68941e-06 1.11742e-06 4.08197e-06 6.29114e-06 3.16112e-06 -9.98055e-06)
(4.86802e-06 4.96627e-07 3.04306e-06 4.86497e-06 3.04132e-06 -9.73299e-06)
(4.80731e-06 6.88818e-08 2.17858e-06 5.02359e-06 2.96422e-06 -9.8309e-06)
(4.97247e-06 1.38922e-08 1.30968e-06 4.88966e-06 2.9294e-06 -9.86213e-06)
(4.96481e-06 -3.75519e-09 4.33033e-07 4.88015e-06 2.90799e-06 -9.84495e-06)
(4.96468e-06 1.65842e-09 -4.40034e-07 4.8804e-06 2.90853e-06 -9.84507e-06)
(4.97158e-06 -1.71025e-08 -1.31678e-06 4.89156e-06 2.93134e-06 -9.86314e-06)
(4.81027e-06 -6.39065e-08 -2.18862e-06 5.03152e-06 2.97059e-06 -9.84179e-06)
(4.86799e-06 -5.01685e-07 -3.05118e-06 4.86805e-06 3.0489e-06 -9.73605e-06)
(3.69495e-06 -1.12278e-06 -4.08539e-06 6.29269e-06 3.17832e-06 -9.98764e-06)
(4.87278e-06 -2.63611e-08 3.89017e-06 5.09661e-06 2.24192e-06 -9.96938e-06)
(5.03146e-06 7.03004e-08 2.96935e-06 4.81107e-06 2.18031e-06 -9.84253e-06)
(4.89217e-06 1.367e-07 2.12276e-06 4.8902e-06 2.12157e-06 -9.78237e-06)
(4.96377e-06 7.64619e-08 1.28123e-06 4.84859e-06 2.08094e-06 -9.81236e-06)
(4.9432e-06 2.55097e-08 4.25095e-07 4.86216e-06 2.06296e-06 -9.80536e-06)
(4.94306e-06 -2.58721e-08 -4.3073e-07 4.86261e-06 2.06364e-06 -9.80568e-06)
(4.96447e-06 -7.67823e-08 -1.28694e-06 4.85066e-06 2.08329e-06 -9.81514e-06)
(4.89332e-06 -1.3492e-07 -2.12789e-06 4.89173e-06 2.12495e-06 -9.78505e-06)
(5.02617e-06 -6.39442e-08 -2.96918e-06 4.80318e-06 2.18291e-06 -9.82935e-06)
(4.8683e-06 2.75056e-08 -3.8921e-06 5.10107e-06 2.24954e-06 -9.96937e-06)
(4.93061e-06 2.51618e-07 3.81238e-06 4.93122e-06 1.33912e-06 -9.86183e-06)
(4.8912e-06 1.47171e-08 2.93069e-06 4.97202e-06 1.30951e-06 -9.86321e-06)
(4.85083e-06 7.67339e-08 2.08233e-06 4.96336e-06 1.28075e-06 -9.81419e-06)
(4.90906e-06 3.70073e-08 1.25235e-06 4.90792e-06 1.25154e-06 -9.81698e-06)
(4.90669e-06 1.10488e-08 4.15944e-07 4.89423e-06 1.23698e-06 -9.80092e-06)
(4.90712e-06 -1.04746e-08 -4.2034e-07 4.89491e-06 1.23768e-06 -9.80202e-06)
(4.90927e-06 -3.63803e-08 -1.25657e-06 4.9082e-06 1.25323e-06 -9.81748e-06)
(4.85116e-06 -7.67947e-08 -2.08588e-06 4.96242e-06 1.28329e-06 -9.81358e-06)
(4.89157e-06 -1.73301e-08 -2.93336e-06 4.97047e-06 1.31304e-06 -9.86204e-06)
(4.93106e-06 -2.51901e-07 -3.81424e-06 4.9276e-06 1.34255e-06 -9.85866e-06)
(5.00542e-06 6.64271e-08 3.75171e-06 4.83585e-06 4.45923e-07 -9.84127e-06)
(4.88076e-06 -3.33758e-09 2.90856e-06 4.9644e-06 4.33006e-07 -9.84516e-06)
(4.86328e-06 2.56451e-08 2.06375e-06 4.94248e-06 4.24719e-07 -9.80576e-06)
(4.89571e-06 1.10663e-08 1.23784e-06 4.90638e-06 4.15414e-07 -9.80209e-06)
(4.89908e-06 2.94237e-09 4.11598e-07 4.89837e-06 4.10985e-07 -9.79745e-06)
(4.8991e-06 -2.39541e-09 -4.14957e-07 4.89835e-06 4.11442e-07 -9.79745e-06)
(4.89538e-06 -1.06086e-08 -1.24096e-06 4.90568e-06 4.16703e-07 -9.80106e-06)
(4.86387e-06 -2.58632e-08 -2.06675e-06 4.94191e-06 4.26867e-07 -9.80579e-06)
(4.88088e-06 1.83033e-09 -2.91102e-06 4.96433e-06 4.35833e-07 -9.84521e-06)
(5.00409e-06 -6.72971e-08 -3.7535e-06 4.8377e-06 4.48844e-07 -9.84179e-06)
(5.00497e-06 -6.75287e-08 3.75176e-06 4.83678e-06 -4.52893e-07 -9.84175e-06)
(4.88093e-06 1.83734e-09 2.90875e-06 4.9644e-06 -4.39982e-07 -9.84533e-06)
(4.86337e-06 -2.58105e-08 2.06412e-06 4.94245e-06 -4.3096e-07 -9.80582e-06)
(4.89522e-06 -1.04862e-08 1.23815e-06 4.90604e-06 -4.20713e-07 -9.80127e-06)
(4.89901e-06 -2.41711e-09 4.12018e-07 4.89856e-06 -4.15451e-07 -9.79757e-06)
(4.89899e-06 2.70378e-09 -4.14582e-07 4.89852e-06 -4.15087e-07 -9.79751e-06)
(4.8953e-06 1.06894e-08 -1.24066e-06 4.9058e-06 -4.19643e-07 -9.80111e-06)
(4.86382e-06 2.56973e-08 -2.06652e-06 4.942e-06 -4.29257e-07 -9.80581e-06)
(4.88088e-06 -2.32133e-09 -2.91088e-06 4.96437e-06 -4.37833e-07 -9.84525e-06)
(5.00412e-06 6.71176e-08 -3.75346e-06 4.83776e-06 -4.50655e-07 -9.84188e-06)
(4.93174e-06 -2.51986e-07 3.81246e-06 4.9275e-06 -1.34607e-06 -9.85924e-06)
(4.89156e-06 -1.70664e-08 2.93103e-06 4.97082e-06 -1.31664e-06 -9.86238e-06)
(4.8506e-06 -7.67505e-08 2.08323e-06 4.96316e-06 -1.28693e-06 -9.81376e-06)
(4.90902e-06 -3.64194e-08 1.25371e-06 4.90874e-06 -1.25692e-06 -9.81776e-06)
(4.90689e-06 -1.06995e-08 4.17276e-07 4.89548e-06 -1.24151e-06 -9.80237e-06)
(4.90689e-06 1.06429e-08 -4.19198e-07 4.89541e-06 -1.24121e-06 -9.8023e-06)
(4.90905e-06 3.63648e-08 -1.25564e-06 4.90854e-06 -1.25605e-06 -9.81759e-06)
(4.85093e-06 7.65514e-08 -2.0852e-06 4.96269e-06 -1.28557e-06 -9.81361e-06)
(4.8916e-06 1.68742e-08 -2.93296e-06 4.97058e-06 -1.31496e-06 -9.86218e-06)
(4.93111e-06 2.518e-07 -3.81411e-06 4.92782e-06 -1.34431e-06 -9.85893e-06)
(4.86883e-06 2.7152e-08 3.8903e-06 5.1018e-06 -2.25275e-06 -9.97063e-06)
(5.02595e-06 -6.37348e-08 2.96678e-06 4.80409e-06 -2.1861e-06 -9.83004e-06)
(4.89253e-06 -1.34976e-07 2.12515e-06 4.89287e-06 -2.12817e-06 -9.7854e-06)
(4.96411e-06 -7.69474e-08 1.28395e-06 4.85148e-06 -2.08656e-06 -9.81559e-06)
(4.94266e-06 -2.59715e-08 4.27389e-07 4.86345e-06 -2.06709e-06 -9.80611e-06)
(4.94263e-06 2.55705e-08 -4.2877e-07 4.8634e-06 -2.06684e-06 -9.80604e-06)
(4.96413e-06 7.65077e-08 -1.28539e-06 4.85125e-06 -2.08583e-06 -9.81538e-06)
(4.89297e-06 1.3462e-07 -2.12676e-06 4.89227e-06 -2.12703e-06 -9.78524e-06)
(5.02619e-06 6.36855e-08 -2.96852e-06 4.80351e-06 -2.18467e-06 -9.82971e-06)
(4.86824e-06 -2.70021e-08 -3.8919e-06 5.10169e-06 -2.25116e-06 -9.96993e-06)
(3.69555e-06 -1.12252e-06 4.08352e-06 6.29326e-06 -3.18105e-06 -9.98881e-06)
(4.86822e-06 -5.01859e-07 3.04874e-06 4.86833e-06 -3.05156e-06 -9.73655e-06)
(4.80976e-06 -6.43305e-08 2.18584e-06 5.03213e-06 -2.97321e-06 -9.84189e-06)
(4.97173e-06 -1.75039e-08 1.31366e-06 4.89172e-06 -2.93396e-06 -9.86345e-06)
(4.96497e-06 1.69186e-09 4.36393e-07 4.88048e-06 -2.91124e-06 -9.84545e-06)
(4.96492e-06 -2.47327e-09 -4.373e-07 4.88044e-06 -2.91102e-06 -9.84536e-06)
(4.9717e-06 1.66656e-08 -1.31466e-06 4.89155e-06 -2.93332e-06 -9.86325e-06)
(4.81028e-06 6.34885e-08 -2.18708e-06 5.03155e-06 -2.97219e-06 -9.84182e-06)
(4.86888e-06 5.01373e-07 -3.05022e-06 4.86742e-06 -3.05027e-06 -9.73629e-06)
(3.69594e-06 1.12325e-06 -4.08491e-06 6.29206e-06 -3.1795e-06 -9.988e-06)
(5.14712e-06 9.78367e-07 4.53155e-06 5.14597e-06 -4.53389e-06 -1.02931e-05)
(6.29605e-06 -1.12384e-06 3.17972e-06 3.69601e-06 -4.08763e-06 -9.99207e-06)
(5.10282e-06 2.70142e-08 2.25015e-06 4.86771e-06 -3.89287e-06 -9.97053e-06)
(4.92867e-06 -2.52132e-07 1.34315e-06 4.93023e-06 -3.81448e-06 -9.8589e-06)
(4.83838e-06 -6.75889e-08 4.49517e-07 5.00356e-06 -3.75362e-06 -9.84194e-06)
(4.8382e-06 6.6802e-08 -4.49996e-07 5.00374e-06 -3.75345e-06 -9.84194e-06)
(4.92817e-06 2.51383e-07 -1.34373e-06 4.93082e-06 -3.81397e-06 -9.859e-06)
(5.10273e-06 -2.78016e-08 -2.25102e-06 4.86838e-06 -3.89202e-06 -9.97111e-06)
(6.29672e-06 1.12277e-06 -3.18092e-06 3.69615e-06 -4.08657e-06 -9.99287e-06)
(5.14853e-06 -9.7729e-07 -4.53274e-06 5.14503e-06 -4.53262e-06 -1.02936e-05)
(3.45607e-06 1.79273e-07 4.21379e-06 3.44577e-06 4.21023e-06 -6.90184e-06)
(3.72673e-06 2.3514e-07 2.93277e-06 2.86278e-06 3.7626e-06 -6.58951e-06)
(3.24261e-06 -3.13288e-07 2.05871e-06 3.51651e-06 3.68825e-06 -6.75912e-06)
(3.17159e-06 7.14858e-08 1.22226e-06 3.49059e-06 3.63677e-06 -6.66218e-06)
(3.11124e-06 -3.23198e-08 4.07466e-07 3.5664e-06 3.59096e-06 -6.67764e-06)
(3.11393e-06 3.45466e-08 -4.14888e-07 3.5652e-06 3.59141e-06 -6.67913e-06)
(3.17082e-06 -6.8831e-08 -1.22996e-06 3.49042e-06 3.63822e-06 -6.66124e-06)
(3.24574e-06 3.21943e-07 -2.06932e-06 3.51125e-06 3.69133e-06 -6.75699e-06)
(3.7234e-06 -2.2861e-07 -2.9507e-06 2.86709e-06 3.77028e-06 -6.59049e-06)
(3.44967e-06 -1.91988e-07 -4.21898e-06 3.45063e-06 4.21715e-06 -6.9003e-06)
(2.86097e-06 2.37215e-07 3.76816e-06 3.72885e-06 2.9329e-06 -6.58982e-06)
(3.1975e-06 9.83932e-08 2.83206e-06 3.19892e-06 2.82962e-06 -6.39642e-06)
(3.23623e-06 -1.09783e-07 2.04273e-06 3.43705e-06 2.79257e-06 -6.67327e-06)
(3.34012e-06 -4.33914e-08 1.22106e-06 3.39028e-06 2.78326e-06 -6.7304e-06)
(3.31973e-06 -2.88442e-08 4.03687e-07 3.44231e-06 2.77238e-06 -6.76204e-06)
(3.32073e-06 3.06014e-08 -4.10147e-07 3.44172e-06 2.77297e-06 -6.76245e-06)
(3.3424e-06 4.18133e-08 -1.22805e-06 3.38987e-06 2.7857e-06 -6.73226e-06)
(3.24178e-06 1.14993e-07 -2.05336e-06 3.44058e-06 2.80032e-06 -6.68236e-06)
(3.19775e-06 -9.40152e-08 -2.83947e-06 3.19471e-06 2.83684e-06 -6.39246e-06)
(2.86568e-06 -2.26776e-07 -3.76972e-06 3.71897e-06 2.94617e-06 -6.58465e-06)
(3.51695e-06 -3.16333e-07 3.6908e-06 3.24389e-06 2.05896e-06 -6.76084e-06)
(3.44208e-06 -1.10977e-07 2.79886e-06 3.24196e-06 2.04474e-06 -6.68404e-06)
(3.3784e-06 -2.22212e-08 2.00374e-06 3.37873e-06 2.00234e-06 -6.75714e-06)
(3.41155e-06 2.57637e-10 1.20184e-06 3.38802e-06 1.97583e-06 -6.79957e-06)
(3.37083e-06 4.25955e-09 3.97401e-07 3.43479e-06 1.96309e-06 -6.80562e-06)
(3.37136e-06 -1.74935e-09 -4.02385e-07 3.4346e-06 1.96376e-06 -6.80595e-06)
(3.4135e-06 9.24881e-10 -1.20715e-06 3.38827e-06 1.97831e-06 -6.80177e-06)
(3.38128e-06 2.24982e-08 -2.00897e-06 3.37851e-06 2.00597e-06 -6.7598e-06)
(3.43856e-06 1.14365e-07 -2.79866e-06 3.23361e-06 2.04715e-06 -6.67217e-06)
(3.51212e-06 3.22374e-07 -3.69241e-06 3.24252e-06 2.06577e-06 -6.75464e-06)
(3.49146e-06 6.95662e-08 3.63822e-06 3.17151e-06 1.22237e-06 -6.66297e-06)
(3.39132e-06 -4.48614e-08 2.78524e-06 3.3409e-06 1.2208e-06 -6.73222e-06)
(3.38892e-06 -5.22287e-10 1.97755e-06 3.41261e-06 1.2013e-06 -6.80152e-06)
(3.42556e-06 -1.6729e-08 1.18379e-06 3.42564e-06 1.18289e-06 -6.8512e-06)
(3.4059e-06 -3.9255e-09 3.91604e-07 3.44884e-06 1.17399e-06 -6.85473e-06)
(3.4065e-06 6.07028e-09 -3.95482e-07 3.44905e-06 1.17463e-06 -6.85555e-06)
(3.42613e-06 1.82029e-08 -1.18758e-06 3.42495e-06 1.18438e-06 -6.85107e-06)
(3.38949e-06 6.21487e-10 -1.98088e-06 3.41091e-06 1.20361e-06 -6.8004e-06)
(3.39164e-06 4.09662e-08 -2.78796e-06 3.33966e-06 1.22445e-06 -6.73131e-06)
(3.49137e-06 -6.96907e-08 -3.6401e-06 3.16923e-06 1.22648e-06 -6.6606e-06)
(3.5675e-06 -3.36634e-08 3.59199e-06 3.11045e-06 4.07595e-07 -6.67795e-06)
(3.44329e-06 -3.0022e-08 2.77358e-06 3.31924e-06 4.03476e-07 -6.76253e-06)
(3.43554e-06 3.33367e-09 1.96421e-06 3.37069e-06 3.96922e-07 -6.80623e-06)
(3.44958e-06 -4.30726e-09 1.17499e-06 3.40623e-06 3.91043e-07 -6.85581e-06)
(3.43591e-06 -6.0558e-10 3.89541e-07 3.43576e-06 3.88902e-07 -6.87167e-06)
(3.43598e-06 2.34246e-09 -3.9254e-07 3.4356e-06 3.89272e-07 -6.87158e-06)
(3.44924e-06 5.75306e-09 -1.17774e-06 3.40538e-06 3.92092e-07 -6.85462e-06)
(3.43597e-06 -2.45291e-09 -1.96692e-06 3.37003e-06 3.98799e-07 -6.806e-06)
(3.44348e-06 2.96138e-08 -2.77581e-06 3.31914e-06 4.06227e-07 -6.76262e-06)
(3.56611e-06 3.33841e-08 -3.59349e-06 3.113e-06 4.10806e-07 -6.67912e-06)
(3.56647e-06 3.36393e-08 3.59217e-06 3.11283e-06 -4.14772e-07 -6.67929e-06)
(3.44311e-06 2.97645e-08 2.77388e-06 3.31965e-06 -4.10268e-07 -6.76277e-06)
(3.43552e-06 -2.44272e-09 1.96461e-06 3.37055e-06 -4.02712e-07 -6.80607e-06)
(3.44919e-06 5.69246e-09 1.17524e-06 3.40567e-06 -3.95883e-07 -6.85487e-06)
(3.43594e-06 2.24238e-09 3.89889e-07 3.43572e-06 -3.93034e-07 -6.87166e-06)
(3.43586e-06 -5.94152e-10 -3.92245e-07 3.4357e-06 -3.92743e-07 -6.87155e-06)
(3.44907e-06 -4.22751e-09 -1.1775e-06 3.40554e-06 -3.95012e-07 -6.8546e-06)
(3.43572e-06 3.47015e-09 -1.96673e-06 3.37023e-06 -4.01278e-07 -6.80595e-06)
(3.44317e-06 -2.9463e-08 -2.77567e-06 3.31936e-06 -4.08341e-07 -6.76252e-06)
(3.56612e-06 -3.36131e-08 -3.59343e-06 3.11304e-06 -4.12653e-07 -6.67916e-06)
(3.49185e-06 -6.93288e-08 3.63875e-06 3.16927e-06 -1.22983e-06 -6.66112e-06)
(3.3909e-06 4.12784e-08 2.78598e-06 3.34039e-06 -1.22794e-06 -6.73129e-06)
(3.38881e-06 5.90258e-10 1.97859e-06 3.41163e-06 -1.20715e-06 -6.80044e-06)
(3.42585e-06 1.80767e-08 1.18507e-06 3.42539e-06 -1.18794e-06 -6.85124e-06)
(3.40635e-06 5.741e-09 3.92745e-07 3.44939e-06 -1.1783e-06 -6.85574e-06)
(3.40627e-06 -4.15372e-09 -3.9458e-07 3.44939e-06 -1.17806e-06 -6.85566e-06)
(3.42552e-06 -1.66131e-08 -1.18685e-06 3.42547e-06 -1.18723e-06 -6.85099e-06)
(3.3886e-06 3.68483e-10 -1.98031e-06 3.41157e-06 -1.20602e-06 -6.80016e-06)
(3.39078e-06 -4.08648e-08 -2.78754e-06 3.34028e-06 -1.22651e-06 -6.73105e-06)
(3.49131e-06 6.94426e-08 -3.63988e-06 3.16952e-06 -1.22834e-06 -6.66083e-06)
(3.51289e-06 3.22246e-07 3.69103e-06 3.24299e-06 -2.06888e-06 -6.75588e-06)
(3.43716e-06 1.14947e-07 2.79656e-06 3.23499e-06 -2.05034e-06 -6.67215e-06)
(3.38008e-06 2.26382e-08 2.00661e-06 3.37983e-06 -2.00924e-06 -6.75992e-06)
(3.41277e-06 8.30991e-10 1.20455e-06 3.38929e-06 -1.98162e-06 -6.80205e-06)
(3.3707e-06 -2.13821e-09 3.99404e-07 3.43555e-06 -1.96723e-06 -6.80625e-06)
(3.37053e-06 3.7448e-09 -4.00793e-07 3.43562e-06 -1.96702e-06 -6.80615e-06)
(3.41227e-06 6.21878e-10 -1.20592e-06 3.38949e-06 -1.981e-06 -6.80176e-06)
(3.37964e-06 -2.14795e-08 -2.00802e-06 3.37998e-06 -2.00824e-06 -6.75962e-06)
(3.43682e-06 -1.14005e-07 -2.798e-06 3.23508e-06 -2.04911e-06 -6.6719e-06)
(3.51127e-06 -3.21598e-07 -3.69215e-06 3.24392e-06 -2.06758e-06 -6.75519e-06)
(2.86675e-06 -2.2761e-07 3.76826e-06 3.72032e-06 -2.94909e-06 -6.58707e-06)
(3.19596e-06 -9.36699e-08 2.8373e-06 3.1967e-06 -2.83975e-06 -6.39265e-06)
(3.2401e-06 1.15075e-07 2.05095e-06 3.44248e-06 -2.80323e-06 -6.68258e-06)