/*--------------------------------*- C++ -*----------------------------------*\
| =========                 |                                                 |
| \\      /  F ield         | OpenFOAM: The Open Source CFD Toolbox           |
|  \\    /   O peration     | Version:  2406                                  |
|   \\  /    A nd           | Website:  www.openfoam.com                      |
|    \\/     M anipulation  |                                                 |
\*---------------------------------------------------------------------------*/
FoamFile
{
    version     2.0;
    format      ascii;
    arch        "LSB;label=32;scalar=64";
    class       volScalarField;
    location    "200";
    object      turbulenceProperties:L;
}
// * * * * * * * * * * * * * * * * * * * * * * * * * * * * * * * * * * * * * //

dimensions      [0 1 0 0 0 0 0];

internalField   nonuniform List<scalar> 
25000
(
0.0352044
0.0360519
0.0376943
0.0380218
0.038195
0.0381942
0.0380169
0.0376815
0.0360537
0.0352305
0.0360496
0.0366057
0.0382762
0.039254
0.0397548
0.0397537
0.0392503
0.0382641
0.0365993
0.0360556
0.037697
0.0382698
0.0397302
0.0406994
0.0411971
0.0411962
0.0406962
0.0397282
0.038272
0.0376809
0.0380243
0.0392553
0.0406991
0.0417245
0.0422618
0.0422603
0.0417222
0.0406964
0.0392495
0.0380157
0.0381971
0.0397568
0.041198
0.0422614
0.0428204
0.0428197
0.04226
0.0411943
0.0397514
0.0381922
0.0381957
0.0397553
0.0411974
0.0422615
0.0428199
0.0428193
0.0422597
0.0411941
0.0397513
0.0381922
0.0380181
0.0392522
0.0406983
0.0417229
0.0422596
0.0422591
0.0417213
0.0406958
0.039249
0.0380156
0.0376823
0.0382735
0.0397293
0.040696
0.0411948
0.0411944
0.0406949
0.0397273
0.0382713
0.0376807
0.0360568
0.0366005
0.0382649
0.0392499
0.0397519
0.0397516
0.0392491
0.0382635
0.036599
0.0360562
0.0352314
0.0360534
0.0376813
0.0380163
0.0381926
0.0381924
0.0380156
0.0376804
0.0360528
0.0352301
0.0299798
0.0304823
0.0315484
0.0317833
0.0319186
0.0319183
0.0317829
0.0315285
0.0304605
0.0300057
0.0304762
0.0313142
0.0319655
0.0322586
0.0324512
0.032451
0.0322565
0.0319439
0.0312931
0.030467
0.0315486
0.0319484
0.0325541
0.0328132
0.032954
0.0329533
0.0328085
0.03255
0.0319622
0.0315303
0.0317841
0.0322582
0.0328111
0.0331195
0.0332802
0.0332781
0.0331176
0.0328107
0.0322576
0.0317831
0.0319194
0.0324518
0.0329541
0.0332788
0.0334361
0.0334357
0.0332792
0.0329528
0.0324505
0.0319178
0.0319191
0.0324515
0.0329537
0.0332797
0.0334357
0.0334355
0.0332791
0.0329527
0.0324504
0.0319177
0.0317837
0.0322582
0.0328112
0.0331177
0.0332776
0.0332775
0.0331172
0.0328104
0.0322572
0.0317828
0.0315302
0.0319623
0.0325502
0.0328083
0.0329527
0.0329526
0.0328079
0.0325494
0.0319615
0.0315298
0.0304677
0.0312935
0.0319446
0.0322566
0.0324505
0.0324504
0.0322562
0.0319438
0.0312929
0.0304676
0.0300065
0.0304611
0.0315296
0.0317832
0.0319178
0.0319177
0.0317828
0.0315287
0.0304604
0.0300058
0.0312735
0.0323742
0.0330974
0.0335412
0.0337541
0.0337525
0.0335413
0.0330868
0.0323367
0.0312631
0.0323645
0.0334755
0.0338058
0.0340668
0.0342511
0.0342499
0.0340615
0.0337741
0.0334625
0.0323492
0.033095
0.0337774
0.034287
0.0345609
0.0347351
0.0347336
0.0345528
0.0342795
0.033803
0.0330914
0.0335403
0.0340638
0.0345564
0.0348566
0.0350423
0.0350391
0.0348541
0.0345562
0.0340636
0.0335421
0.0337539
0.0342504
0.034734
0.0350395
0.0352005
0.0352001
0.0350409
0.0347324
0.0342486
0.0337516
0.0337526
0.0342494
0.0347332
0.0350409
0.0351998
0.0351997
0.0350406
0.0347323
0.0342484
0.0337513
0.0335418
0.0340635
0.0345561
0.0348534
0.0350377
0.0350377
0.0348533
0.0345558
0.0340631
0.0335414
0.0330898
0.0338021
0.0342788
0.0345514
0.0347316
0.0347317
0.0345517
0.0342788
0.0338021
0.0330901
0.0323478
0.0334617
0.0337736
0.0340603
0.034248
0.0342482
0.0340607
0.0337737
0.0334619
0.0323486
0.0312642
0.0323382
0.0330883
0.0335414
0.0337512
0.0337513
0.0335415
0.0330878
0.0323375
0.0312639
0.0359046
0.0380524
0.0385395
0.0393015
0.0395879
0.0395829
0.0392974
0.038529
0.0380182
0.0358932
0.0380385
0.0395427
0.0397783
0.0402303
0.0404641
0.040461
0.0402176
0.0397266
0.0395327
0.0380394
0.0385307
0.0397328
0.0404174
0.0409443
0.0412582
0.0412554
0.0409312
0.0404028
0.039769
0.038536
0.0392977
0.0402223
0.0409361
0.0414419
0.0417675
0.0417629
0.0414389
0.0409361
0.0402204
0.0392976
0.0395855
0.0404613
0.0412553
0.0417629
0.0420501
0.0420496
0.0417653
0.0412529
0.0404577
0.0395805
0.0395814
0.0404591
0.0412543
0.0417653
0.0420491
0.0420489
0.0417648
0.0412527
0.0404577
0.0395801
0.0392969
0.0402209
0.0409361
0.0414377
0.0417604
0.0417604
0.0414378
0.0409358
0.0402203
0.0392965
0.0385332
0.0397687
0.0404016
0.0409287
0.0412516
0.0412518
0.0409293
0.040402
0.0397687
0.0385341
0.0380341
0.0395314
0.0397247
0.0402147
0.0404571
0.0404574
0.0402156
0.0397255
0.0395317
0.0380363
0.0358924
0.0380207
0.0385295
0.0392962
0.0395801
0.0395804
0.0392971
0.0385299
0.0380199
0.0358932
0.0410996
0.0440737
0.0445818
0.0457005
0.046084
0.0460783
0.0456959
0.0445694
0.0440427
0.0411186
0.0440547
0.0460029
0.0465059
0.0473921
0.0477417
0.0477388
0.0473759
0.0464307
0.0459879
0.0440712
0.0445687
0.0464418
0.0475653
0.0486584
0.0492376
0.0492349
0.0486455
0.0475481
0.0464887
0.0445787
0.0456994
0.0473815
0.0486471
0.0496813
0.0503014
0.0502962
0.0496821
0.0486535
0.0473817
0.0456965
0.0460827
0.0477389
0.0492343
0.0502953
0.0509049
0.0509049
0.0503009
0.0492338
0.0477378
0.0460792
0.0460761
0.0477366
0.0492338
0.0502998
0.0509041
0.0509042
0.0503003
0.0492333
0.0477378
0.0460792
0.0456943
0.0473807
0.0486521
0.0496798
0.0502933
0.0502934
0.0496805
0.0486527
0.0473817
0.0456959
0.0445765
0.046488
0.0475453
0.0486418
0.0492306
0.0492308
0.0486429
0.0475465
0.0464886
0.0445771
0.0440654
0.0459851
0.0464261
0.0473716
0.0477357
0.047736
0.0473731
0.0464283
0.0459864
0.0440673
0.0411172
0.0440437
0.0445679
0.0456942
0.0460785
0.0460785
0.0456951
0.0445691
0.0440438
0.0411173
0.045389
0.0484431
0.049078
0.0503061
0.0507337
0.0507287
0.0502997
0.0490566
0.0483969
0.0454243
0.0484167
0.0502723
0.0511428
0.0523362
0.052778
0.0527758
0.0523175
0.0510446
0.0502362
0.0484282
0.0490663
0.0510647
0.0524654
0.0539768
0.0547188
0.0547148
0.0539645
0.0524496
0.0511157
0.0490646
0.0503076
0.0523235
0.0539642
0.0554396
0.0562574
0.0562497
0.05544
0.0539747
0.0523246
0.0502969
0.0507325
0.0527749
0.0547156
0.0562504
0.057114
0.0571125
0.056255
0.0547131
0.0527734
0.0507286
0.0507253
0.0527728
0.0547141
0.0562546
0.0571116
0.0571108
0.0562536
0.0547118
0.0527731
0.0507285
0.0502961
0.052324
0.0539728
0.0554371
0.0562451
0.0562444
0.0554362
0.0539718
0.0523235
0.0502958
0.0490649
0.0511155
0.0524456
0.0539593
0.0547083
0.0547078
0.0539589
0.0524453
0.0511143
0.0490625
0.0484248
0.0502332
0.0510378
0.0523108
0.0527703
0.0527701
0.0523111
0.0510392
0.0502335
0.0484228
0.04542
0.0483938
0.0490498
0.0502937
0.0507271
0.0507267
0.0502945
0.0490523
0.0483958
0.0454196
0.0479977
0.0503368
0.0510208
0.0521792
0.0526002
0.0525957
0.0521674
0.0509821
0.0502617
0.048012
0.0503003
0.0516563
0.0527226
0.0539254
0.0543824
0.0543779
0.0538999
0.052607
0.0515995
0.0502949
0.0510039
0.0526328
0.0539653
0.0554486
0.0561248
0.0561161
0.0554283
0.053948
0.0526866
0.0509887
0.0521747
0.0539062
0.0554329
0.0568607
0.057583
0.0575704
0.0568521
0.0554384
0.0539059
0.0521593
0.0525946
0.0543749
0.0561187
0.0575742
0.058336
0.0583319
0.0575738
0.0561099
0.0543687
0.0525883
0.0525896
0.0543724
0.0561136
0.0575744
0.0583302
0.0583281
0.0575711
0.0561078
0.0543676
0.0525877
0.0521621
0.0539075
0.0554368
0.0568476
0.0575616
0.0575602
0.056845
0.0554329
0.0539031
0.0521574
0.050992
0.0526873
0.0539432
0.0554202
0.0561037
0.0561024
0.0554178
0.05394
0.0526833
0.0509867
0.0502947
0.0515974
0.052599
0.0538893
0.0543651
0.054364
0.0538875
0.0525973
0.0515949
0.0502895
0.0480083
0.0502578
0.0509726
0.0521565
0.0525874
0.0525865
0.052156
0.0509735
0.0502589
0.0480072
0.0490029
0.0504819
0.0511575
0.0521436
0.0525324
0.0525283
0.0521294
0.0511123
0.0503958
0.0489923
0.0504405
0.0513601
0.052415
0.0534594
0.053892
0.0538853
0.0534291
0.0522956
0.0513086
0.0504327
0.0511329
0.0523172
0.0534651
0.0547472
0.0553054
0.0552929
0.0547179
0.0534457
0.0523812
0.0511216
0.0521314
0.0534352
0.0547295
0.0559561
0.0565368
0.0565212
0.0559404
0.0547298
0.053437
0.0521209
0.0525228
0.0538825
0.0552983
0.0565273
0.0571212
0.0571162
0.0565254
0.0552877
0.0538746
0.052517
0.0525205
0.0538799
0.0552909
0.0565257
0.0571145
0.0571123
0.0565231
0.055286
0.053874
0.0525161
0.0521236
0.0534392
0.0547281
0.055936
0.0565123
0.0565113
0.0559343
0.0547255
0.0534353
0.0521193
0.0511234
0.052382
0.053441
0.0547101
0.0552805
0.0552797
0.0547089
0.0534395
0.0523797
0.0511206
0.05043
0.0513057
0.0522866
0.0534174
0.0538701
0.0538696
0.0534169
0.0522866
0.0513051
0.0504279
0.0489867
0.0503919
0.0511021
0.0521166
0.0525151
0.0525147
0.0521164
0.0511033
0.0503935
0.0489866
0.049463
0.0503726
0.0509849
0.0517892
0.0521436
0.0521407
0.0517764
0.0509429
0.0502975
0.0494586
0.0503257
0.0509638
0.0518896
0.0527646
0.0531676
0.0531597
0.0527306
0.0517677
0.0509243
0.050335
0.0509521
0.0517859
0.0527718
0.0538783
0.0543578
0.0543447
0.0538445
0.0527506
0.0518597
0.0509547
0.051775
0.0527394
0.0538603
0.0549299
0.0554297
0.0554147
0.0549143
0.0538605
0.0527444
0.0517709
0.0521358
0.0531604
0.0543527
0.0554212
0.0559134
0.0559095
0.0554223
0.0543451
0.0531539
0.0521307
0.0521358
0.0531587
0.0543465
0.0554219
0.0559087
0.0559071
0.0554212
0.0543443
0.0531539
0.0521303
0.0517749
0.0527471
0.0538595
0.0549126
0.0554102
0.0554095
0.0549119
0.0538589
0.052745
0.0517716
0.0509587
0.0518624
0.0527489
0.0538419
0.054339
0.0543386
0.0538417
0.0527492
0.051862
0.0509578
0.0503353
0.0509239
0.0517624
0.0527247
0.0531507
0.0531506
0.0527248
0.0517631
0.0509235
0.0503345
0.0494548
0.0502959
0.0509354
0.051768
0.0521303
0.0521303
0.0517674
0.0509356
0.0502952
0.0494546
0.0500426
0.0506083
0.0511064
0.0517589
0.0520844
0.0520815
0.0517461
0.0510646
0.0505413
0.0500488
0.0505585
0.0509683
0.0517352
0.0524821
0.0528604
0.0528524
0.052446
0.0516077
0.0509314
0.0505783
0.0510726
0.0516304
0.0524912
0.0534766
0.0539137
0.0539024
0.0534435
0.0524693
0.0517085
0.0510807
0.0517513
0.0524623
0.0534611
0.0544259
0.0548879
0.0548751
0.054415
0.053465
0.0524695
0.0517475
0.0520834
0.0528607
0.0539139
0.0548817
0.0553202
0.055318
0.054887
0.0539106
0.0528563
0.0520782
0.0520836
0.0528601
0.053911
0.054887
0.0553191
0.0553176
0.0548873
0.0539107
0.0528564
0.0520783
0.0517529
0.0524722
0.0534659
0.0544176
0.0548768
0.0548762
0.0544169
0.0534661
0.0524715
0.0517505
0.051089
0.0517125
0.0524716
0.053448
0.0539061
0.053906
0.0534484
0.0524734
0.0517137
0.0510884
0.0505859
0.0509335
0.0516074
0.0524486
0.0528535
0.0528538
0.0524497
0.0516098
0.0509346
0.0505841
0.0500501
0.0505402
0.0510603
0.0517451
0.0520786
0.0520791
0.0517448
0.0510609
0.0505392
0.0500473
0.0507982
0.0511759
0.0515321
0.0520627
0.0523636
0.0523595
0.0520468
0.051484
0.051105
0.0508089
0.0511205
0.0513068
0.0519257
0.052584
0.0529437
0.0529359
0.052546
0.0517898
0.0512633
0.0511395
0.0515007
0.0518211
0.0525856
0.0534934
0.0539116
0.0539029
0.0534635
0.0525652
0.0519005
0.0515051
0.0520625
0.0525686
0.0534796
0.0543793
0.0548287
0.0548184
0.0543741
0.053489
0.0525783
0.0520547
0.052368
0.0529493
0.0539154
0.054824
0.0552383
0.0552372
0.0548323
0.0539158
0.0529468
0.0523616
0.0523671
0.0529498
0.0539168
0.054834
0.05524
0.0552381
0.0548334
0.0539164
0.0529467
0.0523621
0.0520608
0.052581
0.0534928
0.054381
0.0548244
0.0548231
0.0543783
0.0534911
0.0525796
0.0520582
0.051517
0.0519058
0.0525721
0.0534744
0.0539134
0.0539127
0.053473
0.0525723
0.0519058
0.0515153
0.0511551
0.0512686
0.0517962
0.052557
0.0529451
0.0529453
0.0525571
0.0517978
0.0512693
0.0511525
0.050814
0.0511021
0.0514829
0.0520523
0.0523628
0.0523637
0.0520528
0.051485
0.0511035
0.0508127
0.0515716
0.051948
0.0521661
0.0525997
0.0528803
0.0528766
0.0525844
0.0521153
0.0518736
0.0515811
0.0518943
0.0518572
0.0523489
0.0529465
0.0532943
0.053288
0.0529112
0.052212
0.0518134
0.0519106
0.0521427
0.052246
0.0529336
0.0537923
0.0542063
0.0542004
0.0537682
0.05292
0.0523338
0.0521468
0.052607
0.0529339
0.0537782
0.0546398
0.0550904
0.0550818
0.0546398
0.053795
0.0529505
0.0526002
0.0528886
0.0533012
0.0542092
0.0550845
0.0554915
0.0554912
0.0550949
0.0542132
0.0533029
0.0528851
0.0528871
0.0533026
0.0542134
0.0550964
0.0554932
0.0554914
0.0550957
0.0542134
0.0533018
0.0528852
0.0526024
0.0529488
0.0537977
0.0546456
0.0550859
0.0550846
0.0546426
0.0537955
0.0529482
0.0526013
0.0521553
0.0523337
0.0529261
0.0537778
0.054209
0.0542084
0.0537758
0.0529251
0.0523335
0.0521531
0.051929
0.051817
0.0522214
0.052924
0.0532982
0.0532983
0.0529236
0.0522217
0.0518172
0.0519247
0.0515907
0.051869
0.0521187
0.0525946
0.052884
0.0528851
0.0525954
0.0521211
0.0518723
0.0515898
0.0521573
0.0528173
0.0529317
0.05329
0.0535511
0.0535464
0.0532721
0.0528752
0.0527344
0.0521583
0.0527655
0.0525262
0.0529142
0.0534681
0.0538054
0.0537986
0.0534308
0.0527739
0.0524848
0.0527812
0.0529117
0.0528066
0.0534298
0.0542563
0.0546706
0.054664
0.0542314
0.0534193
0.052904
0.0529196
0.0532943
0.0534476
0.0542371
0.0550754
0.0555303
0.0555207
0.0550739
0.0542556
0.0534702
0.0532911
0.0535544
0.0538045
0.054666
0.0555203
0.0559265
0.0559252
0.0555295
0.0546702
0.0538086
0.0535538
0.0535523
0.053806
0.05467
0.0555299
0.0559248
0.0559234
0.055529
0.0546701
0.0538073
0.0535531
0.053286
0.0534642
0.0542555
0.0550746
0.0555169
0.0555162
0.0550728
0.0542545
0.0534655
0.0532874
0.052915
0.0528969
0.0534211
0.0542338
0.0546627
0.0546628
0.0542325
0.0534204
0.052898
0.0529153
0.0527888
0.0524848
0.052783
0.0534386
0.0538008
0.0538009
0.0534375
0.0527817
0.0524844
0.0527857
0.0521658
0.0527321
0.0528836
0.0532813
0.0535495
0.0535504
0.0532811
0.0528839
0.0527338
0.0521645
0.052302
0.0536439
0.0537427
0.05405
0.0542944
0.0542911
0.0540351
0.0536895
0.0535674
0.0523086
0.0535954
0.0532401
0.0535456
0.0540635
0.0543906
0.0543835
0.0540252
0.0534059
0.0532122
0.0536289
0.0537186
0.0534282
0.0539945
0.0547954
0.0552098
0.0552011
0.0547667
0.0539851
0.0535393
0.0537437
0.0540443
0.0540308
0.0547693
0.0555894
0.0560475
0.0560355
0.0555833
0.0547861
0.0540593
0.0540517
0.0542902
0.0543802
0.0551965
0.0560328
0.0564395
0.056437
0.0560399
0.0551992
0.0543858
0.0542945
0.0542902
0.0543828
0.055199
0.0560381
0.0564333
0.0564327
0.056038
0.055199
0.0543853
0.054294
0.0540419
0.0540521
0.0547831
0.0555769
0.056022
0.0560225
0.0555776
0.054784
0.0540549
0.0540461
0.0537265
0.0535274
0.0539807
0.0547581
0.0551868
0.0551879
0.0547588
0.0539814
0.0535304
0.0537312
0.053621
0.0532075
0.0534099
0.0540227
0.0543744
0.0543747
0.0540219
0.0534084
0.0532081
0.0536219
0.0523114
0.0535688
0.0537004
0.0540393
0.0542887
0.054289
0.054038
0.0536985
0.0535695
0.0523113
0.0520323
0.0543187
0.0545455
0.054829
0.0550566
0.0550539
0.054815
0.0544944
0.0542494
0.0520491
0.0542712
0.0539626
0.0541994
0.0546783
0.0549896
0.0549806
0.0546336
0.0540525
0.0539402
0.0543213
0.054511
0.0540684
0.0545739
0.0553459
0.0557547
0.0557419
0.0553075
0.0545564
0.0541822
0.0545477
0.0548104
0.0546324
0.0553137
0.0561122
0.0565681
0.0565525
0.0560974
0.0553219
0.0546574
0.0548212
0.0550458
0.0549721
0.0557362
0.0565514
0.0569558
0.0569514
0.0565539
0.0557331
0.0549728
0.0550485
0.0550478
0.054975
0.0557361
0.0565524
0.0569463
0.0569457
0.0565512
0.055733
0.0549738
0.0550489
0.054815
0.0546561
0.0553195
0.0560872
0.0565328
0.0565336
0.056088
0.0553193
0.0546562
0.0548171
0.054527
0.0541728
0.0545478
0.0552901
0.0557175
0.0557188
0.0552912
0.0545482
0.054175
0.0545326
0.0542998
0.0539326
0.0540474
0.0546183
0.0549596
0.0549599
0.0546178
0.0540459
0.0539333
0.0543044
0.0520428
0.0542514
0.0544988
0.0548067
0.0550414
0.0550414
0.0548055
0.0544964
0.0542511
0.0520448
0.0519596
0.0547035
0.0552789
0.0555836
0.0557999
0.0557971
0.0555683
0.0552265
0.0546388
0.0519831
0.0546522
0.0546594
0.0548466
0.0552809
0.0555729
0.0555623
0.0552306
0.0546908
0.0546368
0.0547121
0.0552283
0.0547026
0.0551401
0.0558769
0.0562762
0.0562612
0.0558318
0.055115
0.0548149
0.0552689
0.0555544
0.0552281
0.0558431
0.0566146
0.0570652
0.057048
0.0565958
0.0558459
0.0552484
0.0555633
0.0557875
0.0555562
0.0562605
0.057051
0.0574515
0.0574468
0.0570524
0.0562544
0.0555526
0.0557862
0.0557907
0.0555597
0.0562601
0.0570521
0.0574434
0.0574429
0.0570505
0.0562548
0.0555548
0.055788
0.0555668
0.0552551
0.0558468
0.0565878
0.0570318
0.0570324
0.0565878
0.0558446
0.0552519
0.055565
0.0552588
0.0548144
0.0551069
0.0558144
0.0562389
0.0562399
0.0558151
0.0551065
0.0548142
0.055262
0.0546916
0.0546317
0.0546793
0.0552101
0.0555404
0.0555405
0.0552098
0.0546782
0.0546318
0.0546964
0.0519727
0.0546415
0.0552219
0.0555513
0.0557813
0.0557811
0.0555503
0.0552197
0.0546397
0.0519749
0.0543523
0.0547104
0.0558787
0.0562812
0.056504
0.0565002
0.0562625
0.0558221
0.054647
0.0543802
0.0546507
0.0553064
0.0554815
0.0558698
0.0561416
0.0561297
0.0558148
0.0553163
0.0552786
0.0547122
0.0558144
0.0553296
0.0556936
0.0563904
0.0567786
0.0567633
0.056343
0.0556641
0.0554391
0.0558525
0.0562504
0.0558188
0.0563597
0.0571002
0.0575441
0.0575276
0.057083
0.0563628
0.0558366
0.056255
0.056497
0.0561326
0.0567717
0.0575357
0.0579318
0.0579284
0.0575398
0.0567672
0.056128
0.0564923
0.0564993
0.056136
0.0567726
0.0575406
0.0579288
0.0579285
0.0575399
0.0567678
0.05613
0.0564943
0.0562663
0.0558472
0.0563666
0.0570816
0.0575226
0.0575226
0.0570806
0.0563634
0.0558426
0.0562617
0.0558592
0.0554473
0.0556602
0.056334
0.0567538
0.056754
0.0563339
0.0556595
0.0554456
0.0558588
0.0547049
0.0552787
0.0553036
0.055799
0.0561174
0.0561174
0.0557992
0.0553039
0.0552785
0.0547077
0.0543699
0.0546494
0.0558106
0.0562447
0.0564893
0.0564892
0.056245
0.05581
0.0546471
0.0543714
0.0635481
0.0544426
0.0562653
0.0568801
0.0571448
0.05714
0.0568584
0.056206
0.0543808
0.0635646
0.054377
0.0558615
0.0560971
0.0564484
0.0567044
0.0566921
0.0563921
0.0559272
0.0558311
0.0544356
0.0561979
0.0559455
0.05624
0.0568964
0.0572747
0.0572611
0.0568515
0.0562124
0.0560573
0.0562331
0.056858
0.0564073
0.0568717
0.0575805
0.0580185
0.0580041
0.0575694
0.0568816
0.0564285
0.0568612
0.0571456
0.0567053
0.0572779
0.0580159
0.0584078
0.0584068
0.0580253
0.0572795
0.056705
0.0571422
0.0571451
0.0567078
0.0572808
0.0580256
0.0584106
0.0584107
0.0580273
0.0572797
0.0567051
0.0571426
0.056871
0.0564347
0.0568849
0.0575745
0.058011
0.0580107
0.0575734
0.0568832
0.0564324
0.0568681
0.0562506
0.0560674
0.0562131
0.0568544
0.0572673
0.0572671
0.0568542
0.0562138
0.0560669
0.0562494
0.0544432
0.0558346
0.0559186
0.0563882
0.0566942
0.0566943
0.0563897
0.0559214
0.0558359
0.054445
0.0635571
0.0543813
0.056193
0.0568491
0.0571393
0.0571397
0.0568512
0.0561957
0.0543811
0.0635557
0.0429343
0.0544993
0.0563926
0.0573391
0.0576958
0.0576892
0.0573131
0.0563295
0.0544353
0.0429419
0.054428
0.0562834
0.0566899
0.0570277
0.0572746
0.0572617
0.0569694
0.0565155
0.0562512
0.0544812
0.0563308
0.056543
0.0567896
0.0574102
0.0577813
0.057769
0.0573679
0.0567655
0.0566596
0.0563638
0.0573279
0.0569961
0.0573901
0.0580696
0.0585033
0.0584907
0.0580638
0.0574072
0.0570229
0.0573317
0.0577
0.0572804
0.0577893
0.0585031
0.0588916
0.058892
0.0585162
0.0577959
0.0572845
0.0576984
0.0576966
0.0572819
0.0577938
0.0585162
0.0588971
0.058897
0.0585184
0.0577951
0.0572819
0.0576963
0.0573344
0.0570223
0.0574095
0.0580732
0.0585036
0.0585025
0.0580709
0.057408
0.0570214
0.0573331
0.0563825
0.0566675
0.056772
0.0573818
0.0577852
0.0577841
0.0573801
0.0567721
0.0566667
0.0563804
0.0544999
0.0562577
0.0565173
0.0569803
0.0572742
0.0572737
0.0569805
0.0565193
0.0562579
0.0544988
0.0429419
0.054434
0.0563222
0.0573161
0.0576955
0.0576957
0.0573181
0.0563256
0.0544348
0.0429381
0.0243422
0.0564631
0.0563155
0.0576091
0.0581102
0.0581046
0.0575861
0.0562585
0.0564079
0.0243503
0.056395
0.0565498
0.0572416
0.0576074
0.0578558
0.0578437
0.0575517
0.0570703
0.056525
0.0564502
0.0562727
0.0571045
0.0573478
0.0579394
0.0583065
0.0582959
0.0579014
0.0573304
0.0572314
0.0563104
0.0576145
0.0575856
0.0579217
0.0585747
0.059006
0.0589945
0.0585729
0.0579453
0.0576194
0.0576232
0.0581203
0.057864
0.0583138
0.0590037
0.0593889
0.0593897
0.059018
0.0583225
0.0578704
0.058121
0.0581176
0.0578666
0.0583196
0.0590172
0.0593928
0.0593921
0.0590185
0.0583205
0.0578661
0.0581172
0.05762
0.0576146
0.0579474
0.0585815
0.0590037
0.0590019
0.0585778
0.0579442
0.0576121
0.0576176
0.0563235
0.0572354
0.0573419
0.0579197
0.0583111
0.0583093
0.057916
0.0573392
0.0572318
0.0563184
0.056479
0.0565343
0.0570849
0.0575737
0.0578591
0.0578578
0.0575715
0.0570831
0.0565305
0.05647
0.0243504
0.0564069
0.056265
0.0576041
0.0581174
0.0581167
0.0576034
0.056265
0.0564072
0.0243499
0.0162001
0.06237
0.0563748
0.0577133
0.0583704
0.0583657
0.057694
0.056327
0.0623158
0.0162043
0.0622971
0.0567276
0.0577153
0.0581706
0.0584318
0.0584216
0.0581202
0.0575533
0.0567179
0.0623641
0.0563469
0.057581
0.0578945
0.0584676
0.0588329
0.0588242
0.058436
0.0578896
0.0577256
0.0563941
0.0577195
0.0581429
0.0584441
0.0590746
0.0595055
0.0594956
0.0590782
0.0584782
0.0581909
0.0577387
0.0583722
0.0584273
0.0588271
0.0594947
0.0598782
0.0598798
0.0595127
0.0588431
0.0584432
0.0583805
0.0583727
0.058433
0.0588344
0.0595064
0.0598773
0.0598777
0.0595109
0.0588412
0.0584402
0.0583776
0.0577271
0.0581791
0.0584741
0.0590782
0.0594929
0.0594923
0.0590781
0.0584769
0.0581835
0.0577297
0.0563903
0.0577196
0.0578972
0.0584475
0.0588283
0.0588278
0.0584467
0.0578986
0.0577221
0.0563912
0.0623783
0.0567211
0.0575705
0.0581407
0.0584296
0.0584291
0.0581401
0.0575713
0.0567222
0.0623735
0.0162042
0.0623127
0.0563431
0.0577164
0.0583749
0.0583741
0.0577146
0.0563415
0.0623158
0.0162043
0.0120654
0.0518091
0.0574657
0.0578149
0.058524
0.0585236
0.0578066
0.0574387
0.051778
0.0120676
0.0517785
0.0571118
0.0580932
0.0587102
0.0589972
0.0589887
0.0586646
0.0579407
0.0571189
0.051834
0.0574487
0.0579543
0.0584363
0.0590024
0.059365
0.0593575
0.0589748
0.0584411
0.0581156
0.0575119
0.0578115
0.0586675
0.0589685
0.0595783
0.0600079
0.0599986
0.0595848
0.0590101
0.0587283
0.0578463
0.0585134
0.0589758
0.0593429
0.0599871
0.0603681
0.0603704
0.0600076
0.0593642
0.0590014
0.0585342
0.0585188
0.0589849
0.0593505
0.0599952
0.0603614
0.0603633
0.0600036
0.0593634
0.0590016
0.0585352
0.0578254
0.0587095
0.0589983
0.0595722
0.0599805
0.059982
0.0595777
0.0590086
0.0587246
0.0578406
0.0574844
0.058095
0.0584365
0.05897
0.0593436
0.0593453
0.0589747
0.0584456
0.0581096
0.0575019
0.0518322
0.0571063
0.0579474
0.0586708
0.0589828
0.0589844
0.0586753
0.0579557
0.0571203
0.0518259
0.0120677
0.0517812
0.0574495
0.0578198
0.058526
0.0585273
0.0578234
0.0574562
0.0517781
0.0120676
0.00979302
0.0318022
0.0610892
0.0584023
0.058797
0.0587938
0.0583854
0.0610481
0.0317846
0.00979409
0.0317873
0.0583792
0.0583759
0.0592023
0.0595261
0.0595137
0.0591447
0.0582092
0.0583742
0.0318139
0.0610706
0.058223
0.0589541
0.0595273
0.0598808
0.059869
0.0594891
0.058948
0.0583766
0.061116
0.0583797
0.0591401
0.0594844
0.0600705
0.0604914
0.0604781
0.060067
0.0595151
0.0591927
0.058406
0.0587773
0.0594953
0.0598512
0.060467
0.0608398
0.0608389
0.0604795
0.0598626
0.0595122
0.0587911
0.0587849
0.0595065
0.0598586
0.0604724
0.0608296
0.0608296
0.060475
0.0598633
0.0595155
0.0587956
0.0583946
0.0591858
0.0595098
0.0600541
0.0604536
0.0604537
0.0600554
0.0595133
0.0591935
0.0584056
0.061083
0.0583601
0.0589414
0.059476
0.0598438
0.0598444
0.0594768
0.0589438
0.0583683
0.0610972
0.0318167
0.0583609
0.0582098
0.0591384
0.0594948
0.0594952
0.0591385
0.0582106
0.0583666
0.0318131
0.00979433
0.031792
0.0610552
0.0583837
0.0587836
0.058785
0.0583868
0.0610579
0.0317877
0.00979418
0.00848871
0.0214474
0.0622595
0.0603402
0.0597169
0.0597127
0.0603189
0.0622041
0.0214403
0.00848923
0.0214397
0.0613338
0.0586041
0.0596179
0.0599996
0.0599848
0.0595532
0.0584279
0.0613236
0.0214552
0.062214
0.0584376
0.0594226
0.0600333
0.0603796
0.0603649
0.0599866
0.0594065
0.0585851
0.062269
0.0603029
0.0595471
0.0599887
0.0605534
0.0609629
0.0609467
0.0605422
0.0600095
0.059592
0.0603215
0.0597038
0.0599768
0.0603574
0.0609434
0.0613061
0.0613031
0.0609499
0.0603598
0.0599847
0.0597103
0.0597162
0.0599923
0.0603679
0.0609517
0.0612997
0.0612984
0.0609495
0.0603638
0.0599915
0.0597191
0.0603343
0.0596049
0.0600191
0.0605408
0.0609324
0.0609312
0.0605375
0.0600136
0.0596016
0.0603362
0.0622693
0.0585889
0.0594101
0.0599804
0.0603485
0.0603477
0.0599764
0.0594032
0.0585852
0.0622641
0.0214548
0.0613323
0.0584351
0.0595497
0.0599739
0.0599724
0.0595437
0.0584248
0.0613231
0.021455
0.00848937
0.0214429
0.0622317
0.0603212
0.0597117
0.0597106
0.0603156
0.06223
0.0214425
0.00848933
0.00772256
0.0159121
0.0443811
0.0637431
0.0620872
0.0620816
0.0637173
0.0443473
0.0159091
0.00772271
0.0159085
0.0637562
0.0589623
0.0599668
0.0604134
0.0603979
0.0599002
0.0587841
0.0637613
0.0159164
0.0443408
0.0587887
0.0598144
0.0605085
0.0608542
0.0608384
0.0604579
0.0597931
0.0589322
0.0443961
0.06369
0.0598984
0.0604681
0.0610179
0.0614137
0.0613967
0.0610043
0.0604852
0.0599403
0.0637097
0.0620854
0.0604051
0.0608465
0.0614034
0.061754
0.0617511
0.0614096
0.0608473
0.0604112
0.0620916
0.0620992
0.060421
0.0608588
0.0614163
0.0617548
0.0617539
0.0614146
0.0608541
0.0604192
0.0621041
0.0637342
0.0599604
0.0605021
0.0610145
0.0613993
0.0613987
0.0610121
0.0604967
0.0599568
0.0637432
0.0443893
0.0589487
0.0598031
0.0604616
0.0608395
0.0608393
0.0604594
0.0597977
0.0589464
0.044385
0.0159155
0.0637653
0.0587923
0.0599013
0.0604011
0.0604006
0.0598982
0.0587849
0.0637722
0.0159156
0.00772279
0.0159099
0.0443472
0.0637197
0.0620943
0.0620928
0.0637146
0.0443594
0.0159099
0.00772273
0.00727007
0.0127336
0.0296335
0.0581904
0.0648018
0.0647996
0.0581715
0.0296171
0.0127325
0.00726997
0.0127323
0.0524441
0.0597572
0.060302
0.0607867
0.0607736
0.0602432
0.0595931
0.0524678
0.0127359
0.029615
0.0595865
0.0600972
0.0609403
0.0613037
0.0612906
0.060896
0.0600843
0.0597391
0.0296433
0.0581537
0.0602453
0.0609074
0.0614607
0.0618462
0.0618319
0.0614545
0.0609332
0.0602959
0.0581932
0.0648193
0.0607921
0.0613091
0.0618435
0.062183
0.0621829
0.0618566
0.0613176
0.060806
0.0648377
0.0648295
0.060805
0.0613214
0.0618604
0.06219
0.0621911
0.061864
0.0613228
0.0608097
0.0648446
0.0581933
0.0603034
0.0609429
0.0614665
0.061846
0.061847
0.0614682
0.0609429
0.0603065
0.0581945
0.0296402
0.0597488
0.0600894
0.0609029
0.0613043
0.0613055
0.0609052
0.0600903
0.0597539
0.0296348
0.0127355
0.0524529
0.0595927
0.060246
0.0607878
0.060789
0.0602482
0.0595931
0.052459
0.0127353
0.00727014
0.012733
0.0296161
0.0581607
0.0648224
0.0648235
0.0581712
0.0296219
0.012733
0.00727002
0.00700828
0.0108302
0.0213901
0.0412419
0.0562738
0.0562685
0.0412254
0.0213811
0.0108299
0.00700808
0.01083
0.0368103
0.0613872
0.0607835
0.0612006
0.0611885
0.0607288
0.0612329
0.0368177
0.0108313
0.0213808
0.0612273
0.0602684
0.0613286
0.0617337
0.0617225
0.0612895
0.0602627
0.0613841
0.0213949
0.0412255
0.0607407
0.0613019
0.0618885
0.0622687
0.0622568
0.061889
0.0613354
0.0607965
0.0412481
0.0562854
0.0612129
0.061745
0.0622692
0.0625988
0.0626009
0.0622878
0.0617593
0.0612311
0.0562944
0.0562893
0.0612209
0.0617555
0.062287
0.0626075
0.0626097
0.0622936
0.0617604
0.0612285
0.0562876
0.0412471
0.0607892
0.0613356
0.0618973
0.0622727
0.0622743
0.0619006
0.0613378
0.0607944
0.0412368
0.0213943
0.0613833
0.0602627
0.0612963
0.0617389
0.0617404
0.0613002
0.0602662
0.0613902
0.0213906
0.0108313
0.036816
0.0612285
0.0607343
0.0612053
0.0612071
0.0607387
0.061233
0.0368151
0.010831
0.0070083
0.0108304
0.0213816
0.0412218
0.0562729
0.0562773
0.0412308
0.0213844
0.0108303
0.00700817
0.00686732
0.00966208
0.0165793
0.029121
0.0401748
0.0401705
0.0291115
0.0165748
0.00966226
0.00686715
0.00966232
0.0266088
0.063425
0.0616186
0.0618126
0.061801
0.061566
0.063279
0.0266122
0.0096626
0.0165745
0.0632843
0.0603502
0.0616734
0.0621514
0.0621416
0.0616383
0.06035
0.0634438
0.016582
0.0291116
0.0615874
0.0616482
0.0623115
0.0626962
0.0626862
0.0623173
0.0616876
0.0616457
0.029125
0.0401735
0.0618237
0.0621585
0.0626934
0.0630185
0.063022
0.0627161
0.0621766
0.0618436
0.040179
0.0401779
0.0618283
0.0621676
0.0627095
0.0630242
0.063027
0.0627179
0.0621739
0.0618365
0.0401744
0.0291247
0.0616289
0.0616817
0.0623183
0.0626937
0.0626953
0.0623218
0.0616836
0.0616334
0.0291185
0.0165819
0.0634367
0.0603495
0.0616428
0.0621506
0.0621517
0.0616461
0.0603521
0.0634401
0.0165797
0.00966271
0.0266129
0.0632873
0.0615781
0.0618152
0.0618165
0.0615813
0.0632916
0.0266119
0.00966246
0.00686736
0.00966265
0.0165753
0.0291112
0.0401698
0.0401728
0.0291163
0.0165768
0.00966258
0.00686727
0.00680591
0.00893612
0.0136387
0.0218599
0.0290213
0.0290186
0.0218546
0.0136366
0.00893654
0.00680581
0.0089366
0.0203386
0.0610432
0.0629623
0.0627994
0.062787
0.0629078
0.060899
0.0203405
0.00893637
0.0136364
0.0609154
0.0604026
0.0619613
0.0625432
0.0625335
0.0619271
0.0604053
0.0610763
0.0136403
0.0218543
0.0629309
0.0619298
0.0627215
0.0631217
0.0631124
0.0627296
0.0619729
0.0629917
0.0218623
0.0290186
0.0627956
0.0625342
0.063109
0.063437
0.0634412
0.0631343
0.0625556
0.0628176
0.0290224
0.0290221
0.0627992
0.0625424
0.063121
0.0634358
0.0634393
0.0631314
0.0625512
0.0628098
0.0290201
0.0218623
0.06297
0.0619631
0.0627203
0.0631037
0.0631054
0.0627248
0.0619663
0.0629755
0.0218587
0.0136404
0.0610711
0.0604041
0.0619244
0.0625258
0.0625269
0.0619276
0.0604064
0.0610661
0.013639
0.00893653
0.0203414
0.0609239
0.0629232
0.0627903
0.062791
0.0629254
0.0609287
0.0203405
0.00893633
0.00680597
0.00893685
0.013637
0.0218547
0.0290179
0.0290196
0.0218576
0.0136379
0.00893678
0.00680591
0.00679823
0.00848491
0.0117903
0.0173776
0.0221553
0.0221538
0.0173746
0.0117895
0.00848548
0.00679821
0.00848552
0.0163729
0.0494214
0.0643704
0.0642553
0.0642422
0.0643156
0.0493257
0.016374
0.00848508
0.0117894
0.0493344
0.0605513
0.06218
0.0628902
0.0628796
0.0621456
0.0605562
0.0494426
0.0117913
0.0173743
0.0643294