/*--------------------------------*- C++ -*----------------------------------*\
| =========                 |                                                 |
| \\      /  F ield         | OpenFOAM: The Open Source CFD Toolbox           |
|  \\    /   O peration     | Version:  2406                                  |
|   \\  /    A nd           | Website:  www.openfoam.com                      |
|    \\/     M anipulation  |                                                 |
\*---------------------------------------------------------------------------*/
FoamFile
{
    version     2.0;
    format      ascii;
    arch        "LSB;label=32;scalar=64";
    class       volScalarField;
    location    "200";
    object      turbulenceProperties:nuEff;
}
// * * * * * * * * * * * * * * * * * * * * * * * * * * * * * * * * * * * * * //

dimensions      [0 2 -1 0 0 0 0];

internalField   nonuniform List<scalar> 
25000
(
1.58872e-05
1.59285e-05
1.59544e-05
1.59672e-05
1.59728e-05
1.59728e-05
1.59672e-05
1.59545e-05
1.59306e-05
1.58872e-05
1.59306e-05
1.59675e-05
1.59883e-05
1.59999e-05
1.60055e-05
1.60055e-05
1.6e-05
1.59934e-05
1.59675e-05
1.59285e-05
1.59545e-05
1.59934e-05
1.60109e-05
1.60185e-05
1.60238e-05
1.60238e-05
1.60192e-05
1.60109e-05
1.59883e-05
1.59544e-05
1.59672e-05
1.6e-05
1.60192e-05
1.603e-05
1.60345e-05
1.60349e-05
1.603e-05
1.60185e-05
1.59999e-05
1.59672e-05
1.59728e-05
1.60055e-05
1.60238e-05
1.60349e-05
1.60416e-05
1.60416e-05
1.60345e-05
1.60238e-05
1.60055e-05
1.59728e-05
1.59728e-05
1.60055e-05
1.60238e-05
1.60345e-05
1.60416e-05
1.60416e-05
1.60345e-05
1.60238e-05
1.60055e-05
1.59728e-05
1.59672e-05
1.59999e-05
1.60185e-05
1.603e-05
1.60349e-05
1.60349e-05
1.603e-05
1.60185e-05
1.59999e-05
1.59672e-05
1.59544e-05
1.59883e-05
1.60109e-05
1.60192e-05
1.60238e-05
1.60238e-05
1.60192e-05
1.60109e-05
1.59883e-05
1.59544e-05
1.59285e-05
1.59675e-05
1.59934e-05
1.6e-05
1.60055e-05
1.60055e-05
1.6e-05
1.59934e-05
1.59675e-05
1.59285e-05
1.58872e-05
1.59306e-05
1.59545e-05
1.59672e-05
1.59728e-05
1.59728e-05
1.59672e-05
1.59545e-05
1.59306e-05
1.58872e-05
1.55255e-05
1.56522e-05
1.57286e-05
1.57675e-05
1.57845e-05
1.57845e-05
1.57675e-05
1.57294e-05
1.56574e-05
1.55255e-05
1.56573e-05
1.57689e-05
1.5831e-05
1.58653e-05
1.58819e-05
1.58819e-05
1.58661e-05
1.58442e-05
1.57689e-05
1.56523e-05
1.57294e-05
1.58442e-05
1.58975e-05
1.59213e-05
1.59366e-05
1.59367e-05
1.59231e-05
1.58975e-05
1.5831e-05
1.57286e-05
1.57675e-05
1.58661e-05
1.59231e-05
1.5955e-05
1.59686e-05
1.59698e-05
1.5955e-05
1.59213e-05
1.58653e-05
1.57675e-05
1.57845e-05
1.58819e-05
1.59367e-05
1.59698e-05
1.59893e-05
1.59893e-05
1.59686e-05
1.59366e-05
1.58819e-05
1.57845e-05
1.57845e-05
1.58819e-05
1.59366e-05
1.59686e-05
1.59893e-05
1.59893e-05
1.59686e-05
1.59366e-05
1.58819e-05
1.57845e-05
1.57675e-05
1.58653e-05
1.59213e-05
1.5955e-05
1.59698e-05
1.59698e-05
1.5955e-05
1.59213e-05
1.58653e-05
1.57675e-05
1.57286e-05
1.5831e-05
1.58975e-05
1.59231e-05
1.59367e-05
1.59367e-05
1.59231e-05
1.58975e-05
1.5831e-05
1.57286e-05
1.56523e-05
1.57689e-05
1.58442e-05
1.58661e-05
1.58819e-05
1.58819e-05
1.58661e-05
1.58442e-05
1.57689e-05
1.56523e-05
1.55255e-05
1.56574e-05
1.57294e-05
1.57675e-05
1.57845e-05
1.57845e-05
1.57675e-05
1.57294e-05
1.56574e-05
1.55255e-05
1.5174e-05
1.53831e-05
1.55073e-05
1.55718e-05
1.56e-05
1.56e-05
1.55719e-05
1.5509e-05
1.53903e-05
1.5174e-05
1.53903e-05
1.55746e-05
1.56768e-05
1.57331e-05
1.57601e-05
1.57602e-05
1.57347e-05
1.56961e-05
1.55746e-05
1.53831e-05
1.5509e-05
1.56961e-05
1.5785e-05
1.58255e-05
1.58504e-05
1.58507e-05
1.58283e-05
1.57851e-05
1.56768e-05
1.55073e-05
1.55718e-05
1.57347e-05
1.58283e-05
1.58807e-05
1.59035e-05
1.59052e-05
1.58807e-05
1.58255e-05
1.57331e-05
1.55718e-05
1.56e-05
1.57602e-05
1.58507e-05
1.59052e-05
1.5937e-05
1.5937e-05
1.59035e-05
1.58504e-05
1.57601e-05
1.56e-05
1.56e-05
1.57601e-05
1.58505e-05
1.59036e-05
1.5937e-05
1.5937e-05
1.59035e-05
1.58504e-05
1.57601e-05
1.56e-05
1.55718e-05
1.57331e-05
1.58255e-05
1.58807e-05
1.59053e-05
1.59053e-05
1.58807e-05
1.58255e-05
1.57331e-05
1.55718e-05
1.55073e-05
1.56768e-05
1.57851e-05
1.58284e-05
1.58507e-05
1.58507e-05
1.58284e-05
1.57851e-05
1.56768e-05
1.55073e-05
1.53831e-05
1.55746e-05
1.56961e-05
1.57347e-05
1.57602e-05
1.57602e-05
1.57347e-05
1.56961e-05
1.55746e-05
1.53831e-05
1.5174e-05
1.53903e-05
1.5509e-05
1.55719e-05
1.56e-05
1.56e-05
1.55719e-05
1.5509e-05
1.53903e-05
1.5174e-05
1.48394e-05
1.51232e-05
1.52921e-05
1.53811e-05
1.54201e-05
1.54201e-05
1.53812e-05
1.52947e-05
1.51319e-05
1.48394e-05
1.51319e-05
1.53852e-05
1.55258e-05
1.56033e-05
1.56404e-05
1.56406e-05
1.5606e-05
1.55499e-05
1.53853e-05
1.51232e-05
1.52947e-05
1.55499e-05
1.56739e-05
1.57313e-05
1.57654e-05
1.57658e-05
1.5735e-05
1.56739e-05
1.55259e-05
1.52921e-05
1.53812e-05
1.56059e-05
1.5735e-05
1.58071e-05
1.58391e-05
1.58412e-05
1.58071e-05
1.57313e-05
1.56033e-05
1.53811e-05
1.54201e-05
1.56406e-05
1.57658e-05
1.58412e-05
1.58846e-05
1.58846e-05
1.5839e-05
1.57654e-05
1.56404e-05
1.54201e-05
1.54201e-05
1.56404e-05
1.57654e-05
1.58391e-05
1.58847e-05
1.58847e-05
1.5839e-05
1.57654e-05
1.56404e-05
1.54201e-05
1.53811e-05
1.56033e-05
1.57313e-05
1.58071e-05
1.58414e-05
1.58414e-05
1.58071e-05
1.57313e-05
1.56033e-05
1.53811e-05
1.52921e-05
1.55259e-05
1.56739e-05
1.5735e-05
1.57659e-05
1.57659e-05
1.5735e-05
1.56739e-05
1.55259e-05
1.52921e-05
1.51232e-05
1.53853e-05
1.55499e-05
1.5606e-05
1.56406e-05
1.56406e-05
1.5606e-05
1.55499e-05
1.53853e-05
1.51232e-05
1.48394e-05
1.51319e-05
1.52947e-05
1.53812e-05
1.54201e-05
1.54201e-05
1.53812e-05
1.52947e-05
1.51319e-05
1.48394e-05
1.45255e-05
1.48737e-05
1.50838e-05
1.51959e-05
1.52452e-05
1.52452e-05
1.51962e-05
1.50874e-05
1.48836e-05
1.45255e-05
1.48836e-05
1.52011e-05
1.53783e-05
1.54761e-05
1.55228e-05
1.55231e-05
1.54797e-05
1.5406e-05
1.52011e-05
1.48738e-05
1.50874e-05
1.5406e-05
1.5564e-05
1.56385e-05
1.56814e-05
1.5682e-05
1.56429e-05
1.55641e-05
1.53784e-05
1.50838e-05
1.51962e-05
1.54797e-05
1.56429e-05
1.57342e-05
1.57752e-05
1.57777e-05
1.57342e-05
1.56385e-05
1.54761e-05
1.51959e-05
1.52452e-05
1.55231e-05
1.5682e-05
1.57777e-05
1.58322e-05
1.58322e-05
1.5775e-05
1.56814e-05
1.55228e-05
1.52452e-05
1.52452e-05
1.55228e-05
1.56814e-05
1.57753e-05
1.58323e-05
1.58323e-05
1.5775e-05
1.56814e-05
1.55228e-05
1.52452e-05
1.51959e-05
1.54761e-05
1.56385e-05
1.57343e-05
1.57779e-05
1.57779e-05
1.57342e-05
1.56385e-05
1.54761e-05
1.5196e-05
1.50838e-05
1.53784e-05
1.55641e-05
1.56429e-05
1.56821e-05
1.56821e-05
1.56429e-05
1.55641e-05
1.53784e-05
1.50838e-05
1.48738e-05
1.52011e-05
1.54061e-05
1.54797e-05
1.55231e-05
1.55231e-05
1.54797e-05
1.54061e-05
1.52011e-05
1.48738e-05
1.45255e-05
1.48836e-05
1.50874e-05
1.51962e-05
1.52452e-05
1.52452e-05
1.51962e-05
1.50874e-05
1.48836e-05
1.45255e-05
1.42317e-05
1.46347e-05
1.48823e-05
1.50162e-05
1.50752e-05
1.50753e-05
1.50167e-05
1.48869e-05
1.46454e-05
1.42319e-05
1.46453e-05
1.50219e-05
1.5234e-05
1.53512e-05
1.54072e-05
1.54076e-05
1.53558e-05
1.52645e-05
1.5022e-05
1.46348e-05
1.48868e-05
1.52644e-05
1.54554e-05
1.55469e-05
1.55983e-05
1.55991e-05
1.55519e-05
1.54555e-05
1.5234e-05
1.48824e-05
1.50167e-05
1.53558e-05
1.55519e-05
1.56619e-05
1.57118e-05
1.57145e-05
1.56619e-05
1.55469e-05
1.53513e-05
1.50162e-05
1.50753e-05
1.54076e-05
1.55991e-05
1.57145e-05
1.57797e-05
1.57797e-05
1.57115e-05
1.55982e-05
1.54072e-05
1.50753e-05
1.50752e-05
1.54072e-05
1.55983e-05
1.57118e-05
1.57797e-05
1.57797e-05
1.57115e-05
1.55982e-05
1.54072e-05
1.50753e-05
1.50162e-05
1.53513e-05
1.55469e-05
1.56619e-05
1.57148e-05
1.57148e-05
1.56619e-05
1.55469e-05
1.53513e-05
1.50162e-05
1.48824e-05
1.5234e-05
1.54555e-05
1.55519e-05
1.55992e-05
1.55992e-05
1.55519e-05
1.54555e-05
1.5234e-05
1.48824e-05
1.46348e-05
1.5022e-05
1.52645e-05
1.53558e-05
1.54076e-05
1.54076e-05
1.53558e-05
1.52645e-05
1.5022e-05
1.46348e-05
1.42318e-05
1.46454e-05
1.48869e-05
1.50167e-05
1.50753e-05
1.50753e-05
1.50167e-05
1.48869e-05
1.46454e-05
1.42319e-05
1.39557e-05
1.44049e-05
1.46867e-05
1.4841e-05
1.49094e-05
1.49094e-05
1.48417e-05
1.46921e-05
1.44162e-05
1.39559e-05
1.44161e-05
1.48469e-05
1.50923e-05
1.52284e-05
1.52932e-05
1.52937e-05
1.52339e-05
1.51249e-05
1.4847e-05
1.4405e-05
1.46921e-05
1.51248e-05
1.53478e-05
1.54562e-05
1.55159e-05
1.55169e-05
1.54618e-05
1.53479e-05
1.50924e-05
1.46868e-05
1.48417e-05
1.52338e-05
1.54618e-05
1.559e-05
1.56486e-05
1.56515e-05
1.559e-05
1.54563e-05
1.52284e-05
1.48411e-05
1.49094e-05
1.52937e-05
1.55169e-05
1.56515e-05
1.5727e-05
1.5727e-05
1.56483e-05
1.55158e-05
1.52932e-05
1.49094e-05
1.49094e-05
1.52932e-05
1.5516e-05
1.56486e-05
1.57271e-05
1.57271e-05
1.56483e-05
1.55158e-05
1.52932e-05
1.49094e-05
1.4841e-05
1.52284e-05
1.54563e-05
1.55901e-05
1.56519e-05
1.56519e-05
1.559e-05
1.54563e-05
1.52284e-05
1.48411e-05
1.46868e-05
1.50924e-05
1.53479e-05
1.54618e-05
1.55171e-05
1.55171e-05
1.54618e-05
1.53479e-05
1.50924e-05
1.46868e-05
1.4405e-05
1.4847e-05
1.51249e-05
1.52339e-05
1.52938e-05
1.52938e-05
1.52339e-05
1.51249e-05
1.4847e-05
1.4405e-05
1.39558e-05
1.44162e-05
1.46921e-05
1.48418e-05
1.49095e-05
1.49095e-05
1.48417e-05
1.46921e-05
1.44162e-05
1.39558e-05
1.36966e-05
1.41841e-05
1.44965e-05
1.46698e-05
1.47471e-05
1.47472e-05
1.46708e-05
1.45026e-05
1.41956e-05
1.36967e-05
1.41955e-05
1.46758e-05
1.49529e-05
1.51072e-05
1.51806e-05
1.51813e-05
1.51136e-05
1.4987e-05
1.46759e-05
1.41842e-05
1.45026e-05
1.49869e-05
1.52411e-05
1.53664e-05
1.54342e-05
1.54354e-05
1.53725e-05
1.52412e-05
1.4953e-05
1.44966e-05
1.46708e-05
1.51135e-05
1.53724e-05
1.55185e-05
1.55857e-05
1.55888e-05
1.55185e-05
1.53664e-05
1.51072e-05
1.46699e-05
1.47472e-05
1.51813e-05
1.54354e-05
1.55888e-05
1.56742e-05
1.56742e-05
1.55853e-05
1.54341e-05
1.51806e-05
1.47471e-05
1.47471e-05
1.51806e-05
1.54342e-05
1.55857e-05
1.56743e-05
1.56742e-05
1.55853e-05
1.54341e-05
1.51806e-05
1.47471e-05
1.46699e-05
1.51073e-05
1.53664e-05
1.55186e-05
1.55893e-05
1.55893e-05
1.55185e-05
1.53664e-05
1.51073e-05
1.46699e-05
1.44966e-05
1.4953e-05
1.52412e-05
1.53725e-05
1.54356e-05
1.54356e-05
1.53725e-05
1.52412e-05
1.4953e-05
1.44966e-05
1.41842e-05
1.46759e-05
1.4987e-05
1.51136e-05
1.51814e-05
1.51814e-05
1.51136e-05
1.4987e-05
1.46759e-05
1.41842e-05
1.36967e-05
1.41956e-05
1.45027e-05
1.46708e-05
1.47472e-05
1.47472e-05
1.46708e-05
1.45026e-05
1.41956e-05
1.36967e-05
1.34554e-05
1.39726e-05
1.43117e-05
1.45026e-05
1.45882e-05
1.45884e-05
1.45038e-05
1.43185e-05
1.39842e-05
1.34555e-05
1.39842e-05
1.45086e-05
1.48157e-05
1.49877e-05
1.50694e-05
1.50703e-05
1.49948e-05
1.48508e-05
1.45088e-05
1.39727e-05
1.43185e-05
1.48507e-05
1.51353e-05
1.52773e-05
1.53531e-05
1.53544e-05
1.52838e-05
1.51354e-05
1.48158e-05
1.43118e-05
1.45038e-05
1.49948e-05
1.52838e-05
1.54473e-05
1.5523e-05
1.55262e-05
1.54473e-05
1.52774e-05
1.49877e-05
1.45027e-05
1.45884e-05
1.50703e-05
1.53544e-05
1.55262e-05
1.56213e-05
1.56212e-05
1.55225e-05
1.53529e-05
1.50693e-05
1.45883e-05
1.45883e-05
1.50694e-05
1.53531e-05
1.55231e-05
1.56214e-05
1.56213e-05
1.55225e-05
1.53529e-05
1.50693e-05
1.45883e-05
1.45027e-05
1.49877e-05
1.52774e-05
1.54475e-05
1.55268e-05
1.55268e-05
1.54474e-05
1.52774e-05
1.49877e-05
1.45027e-05
1.43118e-05
1.48158e-05
1.51354e-05
1.52839e-05
1.53547e-05
1.53547e-05
1.52839e-05
1.51354e-05
1.48158e-05
1.43118e-05
1.39727e-05
1.45088e-05
1.48509e-05
1.49948e-05
1.50704e-05
1.50704e-05
1.49948e-05
1.48509e-05
1.45088e-05
1.39727e-05
1.34555e-05
1.39843e-05
1.43186e-05
1.45039e-05
1.45884e-05
1.45884e-05
1.45039e-05
1.43186e-05
1.39843e-05
1.34555e-05
1.32345e-05
1.37714e-05
1.4133e-05
1.43398e-05
1.44332e-05
1.44333e-05
1.43413e-05
1.41404e-05
1.37831e-05
1.32346e-05
1.3783e-05
1.43457e-05
1.46809e-05
1.48698e-05
1.49596e-05
1.49606e-05
1.48777e-05
1.47167e-05
1.43458e-05
1.37715e-05
1.41403e-05
1.47166e-05
1.50305e-05
1.51891e-05
1.52726e-05
1.52741e-05
1.51959e-05
1.50306e-05
1.46811e-05
1.41331e-05
1.43412e-05
1.48776e-05
1.51959e-05
1.53766e-05
1.54606e-05
1.54639e-05
1.53766e-05
1.51891e-05
1.48699e-05
1.43398e-05
1.44334e-05
1.49606e-05
1.52741e-05
1.54639e-05
1.55683e-05
1.55682e-05
1.54601e-05
1.52724e-05
1.49595e-05
1.44332e-05
1.44332e-05
1.49596e-05
1.52726e-05
1.54607e-05
1.55684e-05
1.55683e-05
1.54601e-05
1.52724e-05
1.49595e-05
1.44332e-05
1.43398e-05
1.48699e-05
1.51891e-05
1.53767e-05
1.54646e-05
1.54646e-05
1.53767e-05
1.51891e-05
1.48699e-05
1.43398e-05
1.41331e-05
1.46811e-05
1.50306e-05
1.5196e-05
1.52744e-05
1.52744e-05
1.5196e-05
1.50306e-05
1.46811e-05
1.41332e-05
1.37715e-05
1.43458e-05
1.47167e-05
1.48777e-05
1.49608e-05
1.49608e-05
1.48777e-05
1.47167e-05
1.43459e-05
1.37715e-05
1.32346e-05
1.37831e-05
1.41404e-05
1.43413e-05
1.44334e-05
1.44334e-05
1.43413e-05
1.41404e-05
1.37831e-05
1.32346e-05
1.30371e-05
1.35816e-05
1.39611e-05
1.41818e-05
1.42822e-05
1.42825e-05
1.41835e-05
1.39689e-05
1.35932e-05
1.30371e-05
1.35931e-05
1.41874e-05
1.45487e-05
1.47538e-05
1.48512e-05
1.48524e-05
1.47622e-05
1.45848e-05
1.41876e-05
1.35817e-05
1.39689e-05
1.45847e-05
1.49267e-05
1.51016e-05
1.51928e-05
1.51944e-05
1.51088e-05
1.49268e-05
1.45488e-05
1.39612e-05
1.41835e-05
1.47622e-05
1.51087e-05
1.53063e-05
1.53985e-05
1.54018e-05
1.53063e-05
1.51017e-05
1.47538e-05
1.41819e-05
1.42825e-05
1.48524e-05
1.51944e-05
1.54018e-05
1.55153e-05
1.55152e-05
1.53978e-05
1.51925e-05
1.48511e-05
1.42823e-05
1.42823e-05
1.48512e-05
1.51928e-05
1.53985e-05
1.55154e-05
1.55153e-05
1.53979e-05
1.51925e-05
1.48511e-05
1.42823e-05
1.41819e-05
1.47538e-05
1.51017e-05
1.53064e-05
1.54026e-05
1.54026e-05
1.53064e-05
1.51017e-05
1.47538e-05
1.41819e-05
1.39612e-05
1.45488e-05
1.49268e-05
1.51089e-05
1.51948e-05
1.51948e-05
1.51089e-05
1.49268e-05
1.45488e-05
1.39612e-05
1.35817e-05
1.41876e-05
1.45849e-05
1.47623e-05
1.48526e-05
1.48526e-05
1.47623e-05
1.45849e-05
1.41876e-05
1.35817e-05
1.30371e-05
1.35932e-05
1.3969e-05
1.41836e-05
1.42826e-05
1.42826e-05
1.41836e-05
1.3969e-05
1.35932e-05
1.30371e-05
1.28687e-05
1.34049e-05
1.37967e-05
1.40292e-05
1.41359e-05
1.41362e-05
1.40311e-05
1.38048e-05
1.34164e-05
1.28687e-05
1.34163e-05
1.40344e-05
1.44192e-05
1.46396e-05
1.47444e-05
1.47458e-05
1.46486e-05
1.44555e-05
1.40345e-05
1.3405e-05
1.38048e-05
1.44554e-05
1.48242e-05
1.5015e-05
1.51136e-05
1.51154e-05
1.50225e-05
1.48243e-05
1.44193e-05
1.37968e-05
1.40311e-05
1.46485e-05
1.50224e-05
1.52364e-05
1.53366e-05
1.534e-05
1.52364e-05
1.50151e-05
1.46397e-05
1.40292e-05
1.41362e-05
1.47458e-05
1.51154e-05
1.534e-05
1.54622e-05
1.54622e-05
1.53359e-05
1.51133e-05
1.47443e-05
1.41359e-05
1.41359e-05
1.47445e-05
1.51136e-05
1.53367e-05
1.54624e-05
1.54623e-05
1.53359e-05
1.51133e-05
1.47443e-05
1.41359e-05
1.40292e-05
1.46397e-05
1.50151e-05
1.52366e-05
1.53408e-05
1.53408e-05
1.52365e-05
1.50151e-05
1.46397e-05
1.40292e-05
1.37968e-05
1.44194e-05
1.48243e-05
1.50226e-05
1.51158e-05
1.51158e-05
1.50226e-05
1.48243e-05
1.44194e-05
1.37968e-05
1.3405e-05
1.40345e-05
1.44555e-05
1.46487e-05
1.4746e-05
1.4746e-05
1.46487e-05
1.44555e-05
1.40345e-05
1.3405e-05
1.28688e-05
1.34164e-05
1.38049e-05
1.40312e-05
1.41363e-05
1.41363e-05
1.40312e-05
1.38049e-05
1.34164e-05
1.28688e-05
1.27372e-05
1.32435e-05
1.36407e-05
1.38824e-05
1.39945e-05
1.39949e-05
1.38846e-05
1.36491e-05
1.32547e-05
1.27372e-05
1.32547e-05
1.38871e-05
1.42927e-05
1.45274e-05
1.46393e-05
1.46408e-05
1.45369e-05
1.43289e-05
1.38872e-05
1.32436e-05
1.36491e-05
1.43288e-05
1.47229e-05
1.49293e-05
1.50352e-05
1.50371e-05
1.4937e-05
1.4723e-05
1.42928e-05
1.36408e-05
1.38846e-05
1.45368e-05
1.4937e-05
1.5167e-05
1.5275e-05
1.52785e-05
1.5167e-05
1.49293e-05
1.45275e-05
1.38825e-05
1.39949e-05
1.46408e-05
1.50371e-05
1.52785e-05
1.54092e-05
1.54092e-05
1.52743e-05
1.50348e-05
1.46391e-05
1.39945e-05
1.39946e-05
1.46393e-05
1.50352e-05
1.52751e-05
1.54094e-05
1.54093e-05
1.52743e-05
1.50348e-05
1.46391e-05
1.39945e-05
1.38825e-05
1.45275e-05
1.49294e-05
1.51672e-05
1.52794e-05
1.52794e-05
1.51671e-05
1.49294e-05
1.45275e-05
1.38825e-05
1.36408e-05
1.42928e-05
1.4723e-05
1.49371e-05
1.50376e-05
1.50376e-05
1.49371e-05
1.4723e-05
1.42928e-05
1.36408e-05
1.32436e-05
1.38872e-05
1.43289e-05
1.45369e-05
1.46411e-05
1.46411e-05
1.45369e-05
1.43289e-05
1.38872e-05
1.32436e-05
1.27372e-05
1.32548e-05
1.36492e-05
1.38847e-05
1.3995e-05
1.3995e-05
1.38847e-05
1.36492e-05
1.32548e-05
1.27372e-05
1.26583e-05
1.31011e-05
1.34944e-05
1.37423e-05
1.38587e-05
1.38591e-05
1.37447e-05
1.3503e-05
1.31121e-05
1.26583e-05
1.31121e-05
1.37462e-05
1.41694e-05
1.44174e-05
1.45359e-05
1.45375e-05
1.44272e-05
1.42054e-05
1.37464e-05
1.31011e-05
1.3503e-05
1.42053e-05
1.4623e-05
1.48445e-05
1.49575e-05
1.49595e-05
1.48524e-05
1.46231e-05
1.41695e-05
1.34945e-05
1.37447e-05
1.44272e-05
1.48524e-05
1.50981e-05
1.52138e-05
1.52173e-05
1.5098e-05
1.48446e-05
1.44174e-05
1.37424e-05
1.38591e-05
1.45375e-05
1.49595e-05
1.52173e-05
1.53563e-05
1.53562e-05
1.5213e-05
1.4957e-05
1.45356e-05
1.38587e-05
1.38588e-05
1.45359e-05
1.49575e-05
1.52139e-05
1.53565e-05
1.53563e-05
1.5213e-05
1.4957e-05
1.45356e-05
1.38587e-05
1.37424e-05
1.44175e-05
1.48446e-05
1.50983e-05
1.52182e-05
1.52182e-05
1.50982e-05
1.48446e-05
1.44174e-05
1.37424e-05
1.34945e-05
1.41695e-05
1.46232e-05
1.48526e-05
1.49601e-05
1.49601e-05
1.48525e-05
1.46232e-05
1.41695e-05
1.34945e-05
1.31011e-05
1.37464e-05
1.42054e-05
1.44273e-05
1.45379e-05
1.45379e-05
1.44273e-05
1.42054e-05
1.37464e-05
1.31011e-05
1.26583e-05
1.31121e-05
1.3503e-05
1.37448e-05
1.38593e-05
1.38593e-05
1.37448e-05
1.3503e-05
1.31121e-05
1.26583e-05
1.26545e-05
1.29832e-05
1.33596e-05
1.36097e-05
1.37291e-05
1.37296e-05
1.36123e-05
1.33683e-05
1.2994e-05
1.26543e-05
1.2994e-05
1.36129e-05
1.40495e-05
1.43096e-05
1.44343e-05
1.4436e-05
1.43197e-05
1.40852e-05
1.3613e-05
1.29832e-05
1.33683e-05
1.40851e-05
1.45246e-05
1.47607e-05
1.48805e-05
1.48827e-05
1.47688e-05
1.45247e-05
1.40496e-05
1.33596e-05
1.36122e-05
1.43196e-05
1.47687e-05
1.50297e-05
1.51529e-05
1.51564e-05
1.50296e-05
1.47607e-05
1.43096e-05
1.36097e-05
1.37296e-05
1.4436e-05
1.48827e-05
1.51564e-05
1.53034e-05
1.53033e-05
1.5152e-05
1.488e-05
1.44339e-05
1.3729e-05
1.37291e-05
1.44343e-05
1.48806e-05
1.51529e-05
1.53036e-05
1.53035e-05
1.5152e-05
1.488e-05
1.44339e-05
1.3729e-05
1.36097e-05
1.43097e-05
1.47608e-05
1.50299e-05
1.51574e-05
1.51573e-05
1.50297e-05
1.47607e-05
1.43096e-05
1.36097e-05
1.33596e-05
1.40496e-05
1.45247e-05
1.47689e-05
1.48833e-05
1.48833e-05
1.47689e-05
1.45247e-05
1.40496e-05
1.33596e-05
1.29832e-05
1.3613e-05
1.40852e-05
1.43198e-05
1.44364e-05
1.44364e-05
1.43198e-05
1.40852e-05
1.36131e-05
1.29832e-05
1.26543e-05
1.2994e-05
1.33684e-05
1.36123e-05
1.37297e-05
1.37297e-05
1.36123e-05
1.33684e-05
1.2994e-05
1.26543e-05
1.27727e-05
1.28996e-05
1.32394e-05
1.34859e-05
1.36066e-05
1.36071e-05
1.34887e-05
1.32483e-05
1.29103e-05
1.27724e-05
1.29103e-05
1.34888e-05
1.39335e-05
1.42041e-05
1.43345e-05
1.43364e-05
1.42145e-05
1.39688e-05
1.34889e-05
1.28995e-05
1.32483e-05
1.39687e-05
1.44278e-05
1.46778e-05
1.48043e-05
1.48066e-05
1.4686e-05
1.44279e-05
1.39336e-05
1.32394e-05
1.34886e-05
1.42144e-05
1.4686e-05
1.49617e-05
1.50922e-05
1.50958e-05
1.49616e-05
1.46778e-05
1.42041e-05
1.34859e-05
1.36071e-05
1.43364e-05
1.48066e-05
1.50958e-05
1.52506e-05
1.52505e-05
1.50913e-05
1.48038e-05
1.43342e-05
1.36065e-05
1.36066e-05
1.43346e-05
1.48044e-05
1.50923e-05
1.52508e-05
1.52507e-05
1.50914e-05
1.48038e-05
1.43342e-05
1.36065e-05
1.34859e-05
1.42042e-05
1.46779e-05
1.4962e-05
1.50968e-05
1.50968e-05
1.49618e-05
1.46778e-05
1.42041e-05
1.34859e-05
1.32394e-05
1.39336e-05
1.44279e-05
1.46862e-05
1.48073e-05
1.48073e-05
1.46862e-05
1.44279e-05
1.39336e-05
1.32394e-05
1.28995e-05
1.34889e-05
1.39688e-05
1.42146e-05
1.43369e-05
1.43369e-05
1.42146e-05
1.39688e-05
1.34889e-05
1.28995e-05
1.27724e-05
1.29103e-05
1.32483e-05
1.34887e-05
1.36072e-05
1.36072e-05
1.34887e-05
1.32483e-05
1.29103e-05
1.27724e-05
1.3079e-05
1.28658e-05
1.31387e-05
1.33733e-05
1.34927e-05
1.34932e-05
1.33762e-05
1.31477e-05
1.28765e-05
1.30785e-05
1.28765e-05
1.33765e-05
1.38219e-05
1.41012e-05
1.42368e-05
1.42388e-05
1.41118e-05
1.38567e-05
1.33765e-05
1.28657e-05
1.31477e-05
1.38567e-05
1.43326e-05
1.4596e-05
1.47289e-05
1.47313e-05
1.46042e-05
1.43327e-05
1.3822e-05
1.31387e-05
1.33762e-05
1.41117e-05
1.46042e-05
1.48943e-05
1.5032e-05
1.50355e-05
1.48942e-05
1.45959e-05
1.41012e-05
1.33733e-05
1.34933e-05
1.42388e-05
1.47312e-05
1.50355e-05
1.51979e-05
1.51978e-05
1.5031e-05
1.47283e-05
1.42364e-05
1.34926e-05
1.34927e-05
1.42369e-05
1.4729e-05
1.5032e-05
1.51982e-05
1.5198e-05
1.5031e-05
1.47283e-05
1.42364e-05
1.34926e-05
1.33733e-05
1.41013e-05
1.45961e-05
1.48946e-05
1.50366e-05
1.50366e-05
1.48944e-05
1.45959e-05
1.41012e-05
1.33733e-05
1.31387e-05
1.38221e-05
1.43327e-05
1.46044e-05
1.4732e-05
1.4732e-05
1.46044e-05
1.43327e-05
1.38221e-05
1.31387e-05
1.28657e-05
1.33766e-05
1.38568e-05
1.41119e-05
1.42393e-05
1.42393e-05
1.41119e-05
1.38568e-05
1.33766e-05
1.28657e-05
1.30785e-05
1.28764e-05
1.31477e-05
1.33762e-05
1.34934e-05
1.34934e-05
1.33762e-05
1.31477e-05
1.28765e-05
1.30785e-05
1.37089e-05
1.29048e-05
1.30649e-05
1.32752e-05
1.33897e-05
1.33903e-05
1.32782e-05
1.3074e-05
1.29156e-05
1.37078e-05
1.29156e-05
1.32801e-05
1.37157e-05
1.40011e-05
1.41413e-05
1.41433e-05
1.40118e-05
1.375e-05
1.32801e-05
1.29045e-05
1.3074e-05
1.37499e-05
1.42393e-05
1.45151e-05
1.46543e-05
1.46567e-05
1.45235e-05
1.42394e-05
1.37158e-05
1.30649e-05
1.32782e-05
1.40118e-05
1.45234e-05
1.48274e-05
1.4972e-05
1.49755e-05
1.48273e-05
1.4515e-05
1.40011e-05
1.32752e-05
1.33903e-05
1.41433e-05
1.46567e-05
1.49756e-05
1.51454e-05
1.51452e-05
1.4971e-05
1.46536e-05
1.41408e-05
1.33896e-05
1.33897e-05
1.41413e-05
1.46544e-05
1.49721e-05
1.51456e-05
1.51454e-05
1.49711e-05
1.46536e-05
1.41408e-05
1.33896e-05
1.32752e-05
1.40012e-05
1.45152e-05
1.48277e-05
1.49767e-05
1.49766e-05
1.48275e-05
1.45151e-05
1.40011e-05
1.32752e-05
1.30649e-05
1.37158e-05
1.42394e-05
1.45237e-05
1.46575e-05
1.46575e-05
1.45237e-05
1.42394e-05
1.37158e-05
1.3065e-05
1.29046e-05
1.32802e-05
1.375e-05
1.4012e-05
1.41439e-05
1.41439e-05
1.4012e-05
1.375e-05
1.32802e-05
1.29046e-05
1.37077e-05
1.29155e-05
1.3074e-05
1.32783e-05
1.33905e-05
1.33905e-05
1.32783e-05
1.3074e-05
1.29155e-05
1.37077e-05
1.48426e-05
1.30555e-05
1.30297e-05
1.31969e-05
1.33011e-05
1.33018e-05
1.32e-05
1.3039e-05
1.30665e-05
1.48409e-05
1.30666e-05
1.32057e-05
1.36162e-05
1.39043e-05
1.4048e-05
1.40502e-05
1.39151e-05
1.36499e-05
1.32058e-05
1.3055e-05
1.3039e-05
1.36499e-05
1.4148e-05
1.44353e-05
1.45805e-05
1.4583e-05
1.44438e-05
1.41481e-05
1.36162e-05
1.30296e-05
1.32e-05
1.39151e-05
1.44437e-05
1.4761e-05
1.49124e-05
1.49159e-05
1.47609e-05
1.44353e-05
1.39042e-05
1.31968e-05
1.33018e-05
1.40502e-05
1.4583e-05
1.4916e-05
1.50929e-05
1.50928e-05
1.49114e-05
1.45797e-05
1.40475e-05
1.3301e-05
1.33012e-05
1.40481e-05
1.45805e-05
1.49125e-05
1.50932e-05
1.5093e-05
1.49114e-05
1.45797e-05
1.40475e-05
1.3301e-05
1.31969e-05
1.39044e-05
1.44355e-05
1.47613e-05
1.49171e-05
1.49171e-05
1.47611e-05
1.44353e-05
1.39043e-05
1.31969e-05
1.30297e-05
1.36163e-05
1.41481e-05
1.4444e-05
1.45838e-05
1.45838e-05
1.4444e-05
1.41481e-05
1.36163e-05
1.30297e-05
1.30551e-05
1.32058e-05
1.365e-05
1.39153e-05
1.40508e-05
1.40508e-05
1.39153e-05
1.365e-05
1.32058e-05
1.3055e-05
1.48407e-05
1.30664e-05
1.3039e-05
1.32001e-05
1.3302e-05
1.3302e-05
1.32001e-05
1.30389e-05
1.30664e-05
1.48408e-05
1.68802e-05
1.33754e-05
1.30506e-05
1.31468e-05
1.32328e-05
1.32335e-05
1.31501e-05
1.306e-05
1.3387e-05
1.6877e-05
1.33872e-05
1.31632e-05
1.35255e-05
1.38113e-05
1.39575e-05
1.39597e-05
1.38222e-05
1.35587e-05
1.31632e-05
1.33745e-05
1.306e-05
1.35587e-05
1.40591e-05
1.43567e-05
1.45075e-05
1.451e-05
1.43652e-05
1.40591e-05
1.35255e-05
1.30504e-05
1.31501e-05
1.38222e-05
1.43652e-05
1.46952e-05
1.48532e-05
1.48567e-05
1.46951e-05
1.43566e-05
1.38113e-05
1.31467e-05
1.32335e-05
1.39597e-05
1.451e-05
1.48567e-05
1.50407e-05
1.50405e-05
1.48521e-05
1.45067e-05
1.39569e-05
1.32326e-05
1.32328e-05
1.39575e-05
1.45076e-05
1.48533e-05
1.50409e-05
1.50407e-05
1.48521e-05
1.45067e-05
1.39569e-05
1.32326e-05
1.31468e-05
1.38114e-05
1.43568e-05
1.46955e-05
1.48579e-05
1.48579e-05
1.46953e-05
1.43567e-05
1.38113e-05
1.31468e-05
1.30504e-05
1.35256e-05
1.40592e-05
1.43654e-05
1.4511e-05
1.4511e-05
1.43654e-05
1.40592e-05
1.35255e-05
1.30505e-05
1.33746e-05
1.31633e-05
1.35588e-05
1.38224e-05
1.39604e-05
1.39604e-05
1.38224e-05
1.35588e-05
1.31633e-05
1.33746e-05
1.68765e-05
1.33868e-05
1.306e-05
1.31502e-05
1.32337e-05
1.32337e-05
1.31501e-05
1.30599e-05
1.33869e-05
1.68767e-05
2.0266e-05
1.39701e-05
1.31572e-05
1.31369e-05
1.31927e-05
1.31935e-05
1.31403e-05
1.31669e-05
1.39827e-05
2.02604e-05
1.39833e-05
1.31666e-05
1.34469e-05
1.37234e-05
1.38702e-05
1.38725e-05
1.37343e-05
1.34797e-05
1.31665e-05
1.39685e-05
1.3167e-05
1.34796e-05
1.3973e-05
1.42793e-05
1.44354e-05
1.4438e-05
1.42878e-05
1.39731e-05
1.34469e-05
1.31568e-05
1.31404e-05
1.37343e-05
1.42878e-05
1.463e-05
1.47943e-05
1.47978e-05
1.46298e-05
1.42792e-05
1.37233e-05
1.31368e-05
1.31935e-05
1.38725e-05
1.4438e-05
1.47979e-05
1.49885e-05
1.49883e-05
1.47932e-05
1.44345e-05
1.38696e-05
1.31925e-05
1.31927e-05
1.38702e-05
1.44355e-05
1.47944e-05
1.49888e-05
1.49886e-05
1.47932e-05
1.44346e-05
1.38696e-05
1.31925e-05
1.31368e-05
1.37234e-05
1.42795e-05
1.46303e-05
1.47991e-05
1.4799e-05
1.46301e-05
1.42793e-05
1.37233e-05
1.31369e-05
1.31569e-05
1.3447e-05
1.39731e-05
1.42881e-05
1.4439e-05
1.4439e-05
1.42881e-05
1.39731e-05
1.3447e-05
1.3157e-05
1.39688e-05
1.31666e-05
1.34797e-05
1.37345e-05
1.38732e-05
1.38732e-05
1.37345e-05
1.34797e-05
1.31666e-05
1.39686e-05
2.026e-05
1.39824e-05
1.31668e-05
1.31404e-05
1.31937e-05
1.31937e-05
1.31403e-05
1.31667e-05
1.39825e-05
2.026e-05
2.52698e-05
1.49984e-05
1.33886e-05
1.31861e-05
1.31936e-05
1.31944e-05
1.31898e-05
1.33987e-05
1.50127e-05
2.52614e-05
1.50138e-05
1.32393e-05
1.33858e-05
1.36421e-05
1.3787e-05
1.37894e-05
1.36531e-05
1.34182e-05
1.32391e-05
1.49958e-05
1.33989e-05
1.34182e-05
1.38906e-05
1.42034e-05
1.43642e-05
1.43668e-05
1.42118e-05
1.38906e-05
1.33858e-05
1.3388e-05
1.31898e-05
1.36531e-05
1.42118e-05
1.45654e-05
1.47358e-05
1.47393e-05
1.45651e-05
1.42032e-05
1.3642e-05
1.3186e-05
1.31944e-05
1.37894e-05
1.43668e-05
1.47394e-05
1.49366e-05
1.49363e-05
1.47346e-05
1.43633e-05
1.37864e-05
1.31933e-05
1.31936e-05
1.3787e-05
1.43643e-05
1.47359e-05
1.49368e-05
1.49366e-05
1.47347e-05
1.43633e-05
1.37864e-05
1.31933e-05
1.31861e-05
1.36421e-05
1.42035e-05
1.45657e-05
1.47406e-05
1.47405e-05
1.45654e-05
1.42033e-05
1.3642e-05
1.31861e-05
1.33881e-05
1.33858e-05
1.38907e-05
1.42121e-05
1.43679e-05
1.43679e-05
1.42121e-05
1.38907e-05
1.33858e-05
1.33882e-05
1.49964e-05
1.32391e-05
1.34182e-05
1.36533e-05
1.37901e-05
1.37901e-05
1.36533e-05
1.34182e-05
1.32391e-05
1.4996e-05
2.5262e-05
1.50124e-05
1.33986e-05
1.31898e-05
1.31946e-05
1.31946e-05
1.31897e-05
1.33984e-05
1.50124e-05
2.52611e-05
3.19628e-05
1.6615e-05
1.3811e-05
1.33229e-05
1.32558e-05
1.32566e-05
1.33268e-05
1.3822e-05
1.66324e-05
3.19536e-05
1.6634e-05
1.34055e-05
1.33488e-05
1.357e-05
1.37094e-05
1.37118e-05
1.3581e-05
1.33809e-05
1.34052e-05
1.66115e-05
1.38223e-05
1.33809e-05
1.38129e-05
1.4129e-05
1.4294e-05
1.42966e-05
1.41375e-05
1.38129e-05
1.33487e-05
1.38102e-05
1.33269e-05
1.3581e-05
1.41375e-05
1.45013e-05
1.46777e-05
1.46812e-05
1.45011e-05
1.41288e-05
1.35699e-05
1.33227e-05
1.32567e-05
1.37118e-05
1.42967e-05
1.46812e-05
1.48848e-05
1.48846e-05
1.46765e-05
1.4293e-05
1.37087e-05
1.32554e-05
1.32558e-05
1.37094e-05
1.4294e-05
1.46778e-05
1.48851e-05
1.48848e-05
1.46766e-05
1.4293e-05
1.37087e-05
1.32555e-05
1.33228e-05
1.357e-05
1.41291e-05
1.45017e-05
1.46825e-05
1.46825e-05
1.45014e-05
1.41289e-05
1.35699e-05
1.33229e-05
1.38104e-05
1.33488e-05
1.3813e-05
1.41377e-05
1.42977e-05
1.42977e-05
1.41377e-05
1.38129e-05
1.33488e-05
1.38106e-05
1.66124e-05
1.34052e-05
1.3381e-05
1.35812e-05
1.37126e-05
1.37126e-05
1.35812e-05
1.3381e-05
1.34052e-05
1.66121e-05
3.19546e-05
1.66322e-05
1.38219e-05
1.33269e-05
1.32569e-05
1.32569e-05
1.33267e-05
1.38216e-05
1.66321e-05
3.19539e-05
4.01453e-05
1.9364e-05
1.45302e-05
1.35887e-05
1.3404e-05
1.3405e-05
1.35929e-05
1.45424e-05
1.93855e-05
4.01369e-05
1.93873e-05
1.37221e-05
1.33473e-05
1.35111e-05
1.36396e-05
1.36421e-05
1.35222e-05
1.33794e-05
1.37216e-05
1.93595e-05
1.45428e-05
1.33795e-05
1.37416e-05
1.40566e-05
1.42249e-05
1.42276e-05
1.40651e-05
1.37416e-05
1.33471e-05
1.45291e-05
1.35931e-05
1.35222e-05
1.40651e-05
1.4438e-05
1.462e-05
1.46234e-05
1.44378e-05
1.40564e-05
1.35109e-05
1.35884e-05
1.3405e-05
1.3642e-05
1.42276e-05
1.46235e-05
1.48332e-05
1.4833e-05
1.46188e-05
1.42239e-05
1.36388e-05
1.34037e-05
1.3404e-05
1.36396e-05
1.4225e-05
1.46201e-05
1.48335e-05
1.48332e-05
1.46188e-05
1.42239e-05
1.36388e-05
1.34037e-05
1.35885e-05
1.35111e-05
1.40567e-05
1.44383e-05
1.46248e-05
1.46248e-05
1.4438e-05
1.40565e-05
1.35109e-05
1.35887e-05
1.45292e-05
1.33472e-05
1.37417e-05
1.40654e-05
1.42287e-05
1.42287e-05
1.40653e-05
1.37416e-05
1.33472e-05
1.45297e-05
1.93601e-05
1.37216e-05
1.33794e-05
1.35224e-05
1.36429e-05
1.36429e-05
1.35223e-05
1.33794e-05
1.37217e-05
1.93603e-05
4.01365e-05
1.93847e-05
1.45423e-05
1.3593e-05
1.34053e-05
1.34052e-05
1.35927e-05
1.45419e-05
1.93849e-05
4.01371e-05
4.93845e-05
2.34771e-05
1.56724e-05
1.40482e-05
1.36843e-05
1.36854e-05
1.40529e-05
1.56863e-05
2.3502e-05
4.9378e-05
2.3504e-05
1.42607e-05
1.33957e-05
1.34709e-05
1.35811e-05
1.35835e-05
1.3482e-05
1.34281e-05
1.426e-05
2.34715e-05
1.56868e-05
1.34282e-05
1.36793e-05
1.39868e-05
1.41572e-05
1.41599e-05
1.39952e-05
1.36792e-05
1.33954e-05
1.56709e-05
1.4053e-05
1.3482e-05
1.39952e-05
1.43754e-05
1.45627e-05
1.45661e-05
1.43751e-05
1.39865e-05
1.34706e-05
1.40478e-05
1.36854e-05
1.35835e-05
1.41599e-05
1.45662e-05
1.47818e-05
1.47816e-05
1.45615e-05
1.41561e-05