/*--------------------------------*- C++ -*----------------------------------*\
| =========                 |                                                 |
| \\      /  F ield         | OpenFOAM: The Open Source CFD Toolbox           |
|  \\    /   O peration     | Version:  2406                                  |
|   \\  /    A nd           | Website:  www.openfoam.com                      |
|    \\/     M anipulation  |                                                 |
\*---------------------------------------------------------------------------*/
FoamFile
{
    version     2.0;
    format      ascii;
    arch        "LSB;label=32;scalar=64";
    class       volScalarField;
    location    "200";
    object      turbulenceProperties:nut;
}
// * * * * * * * * * * * * * * * * * * * * * * * * * * * * * * * * * * * * * //

dimensions      [0 2 -1 0 0 0 0];

internalField   nonuniform List<scalar> 
25000
(
5.88721e-06
5.9285e-06
5.95435e-06
5.96719e-06
5.97281e-06
5.97281e-06
5.96719e-06
5.95449e-06
5.93058e-06
5.88721e-06
5.93057e-06
5.96746e-06
5.98831e-06
5.99986e-06
6.00547e-06
6.00547e-06
5.99998e-06
5.99342e-06
5.96747e-06
5.92851e-06
5.95449e-06
5.99342e-06
6.01089e-06
6.01854e-06
6.02379e-06
6.02381e-06
6.01921e-06
6.01089e-06
5.98831e-06
5.95436e-06
5.96719e-06
5.99998e-06
6.01921e-06
6.02999e-06
6.03448e-06
6.03491e-06
6.02999e-06
6.01854e-06
5.99986e-06
5.96719e-06
5.97281e-06
6.00547e-06
6.02381e-06
6.03491e-06
6.04156e-06
6.04156e-06
6.03448e-06
6.02379e-06
6.00547e-06
5.97281e-06
5.97281e-06
6.00547e-06
6.02379e-06
6.03448e-06
6.04156e-06
6.04156e-06
6.03448e-06
6.02379e-06
6.00547e-06
5.97281e-06
5.96719e-06
5.99986e-06
6.01854e-06
6.02999e-06
6.03492e-06
6.03492e-06
6.02999e-06
6.01854e-06
5.99986e-06
5.96719e-06
5.95436e-06
5.98831e-06
6.01089e-06
6.01921e-06
6.02381e-06
6.02381e-06
6.01921e-06
6.0109e-06
5.98831e-06
5.95436e-06
5.92851e-06
5.96747e-06
5.99342e-06
5.99998e-06
6.00547e-06
6.00547e-06
5.99998e-06
5.99342e-06
5.96747e-06
5.92851e-06
5.88721e-06
5.93058e-06
5.95449e-06
5.96719e-06
5.97281e-06
5.97281e-06
5.96719e-06
5.95449e-06
5.93058e-06
5.88721e-06
5.52553e-06
5.65223e-06
5.72858e-06
5.7675e-06
5.78451e-06
5.78451e-06
5.7675e-06
5.72937e-06
5.65735e-06
5.52554e-06
5.65733e-06
5.7689e-06
5.83102e-06
5.86533e-06
5.88189e-06
5.8819e-06
5.8661e-06
5.84424e-06
5.76892e-06
5.65225e-06
5.72936e-06
5.84423e-06
5.89746e-06
5.92125e-06
5.93659e-06
5.9367e-06
5.92309e-06
5.89747e-06
5.83104e-06
5.72859e-06
5.76749e-06
5.8661e-06
5.92308e-06
5.95497e-06
5.96864e-06
5.96976e-06
5.95498e-06
5.92126e-06
5.86534e-06
5.76751e-06
5.78451e-06
5.88189e-06
5.9367e-06
5.96976e-06
5.98926e-06
5.98926e-06
5.9686e-06
5.93659e-06
5.88189e-06
5.78451e-06
5.78451e-06
5.88189e-06
5.93659e-06
5.96864e-06
5.98927e-06
5.98927e-06
5.9686e-06
5.93659e-06
5.88189e-06
5.78451e-06
5.76751e-06
5.86534e-06
5.92126e-06
5.95498e-06
5.96981e-06
5.96981e-06
5.95498e-06
5.92126e-06
5.86534e-06
5.76751e-06
5.72859e-06
5.83104e-06
5.89748e-06
5.92309e-06
5.93671e-06
5.93671e-06
5.92309e-06
5.89748e-06
5.83104e-06
5.72859e-06
5.65226e-06
5.76892e-06
5.84424e-06
5.8661e-06
5.8819e-06
5.8819e-06
5.8661e-06
5.84424e-06
5.76892e-06
5.65226e-06
5.52554e-06
5.65735e-06
5.72937e-06
5.7675e-06
5.78451e-06
5.78451e-06
5.7675e-06
5.72937e-06
5.65735e-06
5.52554e-06
5.17399e-06
5.38309e-06
5.50733e-06
5.57181e-06
5.60002e-06
5.60002e-06
5.57186e-06
5.50899e-06
5.39034e-06
5.17398e-06
5.39031e-06
5.57458e-06
5.67675e-06
5.73306e-06
5.76014e-06
5.76019e-06
5.73474e-06
5.69613e-06
5.57462e-06
5.38312e-06
5.50897e-06
5.69611e-06
5.78503e-06
5.82551e-06
5.85045e-06
5.85071e-06
5.82835e-06
5.78505e-06
5.67678e-06
5.50735e-06
5.57185e-06
5.73472e-06
5.82833e-06
5.88067e-06
5.90354e-06
5.90522e-06
5.88068e-06
5.82552e-06
5.73307e-06
5.57182e-06
5.60002e-06
5.76019e-06
5.8507e-06
5.90522e-06
5.93696e-06
5.93697e-06
5.90346e-06
5.85045e-06
5.76015e-06
5.60003e-06
5.60002e-06
5.76014e-06
5.85046e-06
5.90355e-06
5.93698e-06
5.93697e-06
5.90346e-06
5.85045e-06
5.76015e-06
5.60003e-06
5.57182e-06
5.73307e-06
5.82552e-06
5.88069e-06
5.90532e-06
5.90532e-06
5.88069e-06
5.82553e-06
5.73307e-06
5.57183e-06
5.50735e-06
5.67678e-06
5.78505e-06
5.82835e-06
5.85073e-06
5.85073e-06
5.82835e-06
5.78505e-06
5.67678e-06
5.50735e-06
5.38312e-06
5.57462e-06
5.69613e-06
5.73474e-06
5.7602e-06
5.7602e-06
5.73474e-06
5.69614e-06
5.57462e-06
5.38312e-06
5.17398e-06
5.39034e-06
5.50899e-06
5.57186e-06
5.60002e-06
5.60002e-06
5.57186e-06
5.50899e-06
5.39034e-06
5.17398e-06
4.83939e-06
5.12316e-06
5.29209e-06
5.38109e-06
5.4201e-06
5.4201e-06
5.38124e-06
5.29472e-06
5.13195e-06
4.83939e-06
5.1319e-06
5.38521e-06
5.52584e-06
5.6033e-06
5.64044e-06
5.64057e-06
5.60596e-06
5.54993e-06
5.38527e-06
5.12321e-06
5.29469e-06
5.54989e-06
5.67386e-06
5.7313e-06
5.76541e-06
5.76584e-06
5.73498e-06
5.67389e-06
5.52588e-06
5.29213e-06
5.38122e-06
5.60595e-06
5.73496e-06
5.80711e-06
5.83912e-06
5.84122e-06
5.80712e-06
5.73132e-06
5.60332e-06
5.38111e-06
5.4201e-06
5.64057e-06
5.76583e-06
5.84122e-06
5.88464e-06
5.88464e-06
5.83898e-06
5.76539e-06
5.64045e-06
5.42011e-06
5.4201e-06
5.64045e-06
5.76542e-06
5.83913e-06
5.88466e-06
5.88466e-06
5.83898e-06
5.76539e-06
5.64045e-06
5.42011e-06
5.3811e-06
5.60332e-06
5.73132e-06
5.80714e-06
5.8414e-06
5.8414e-06
5.80713e-06
5.73132e-06
5.60332e-06
5.38111e-06
5.29212e-06
5.52587e-06
5.67389e-06
5.73499e-06
5.76588e-06
5.76588e-06
5.73499e-06
5.67389e-06
5.52588e-06
5.29213e-06
5.12321e-06
5.38527e-06
5.54993e-06
5.60597e-06
5.64059e-06
5.64059e-06
5.60597e-06
5.54993e-06
5.38527e-06
5.12321e-06
4.83939e-06
5.13195e-06
5.29472e-06
5.38125e-06
5.42011e-06
5.42011e-06
5.38124e-06
5.29472e-06
5.13195e-06
4.83939e-06
4.52545e-06
4.87373e-06
5.08378e-06
5.19591e-06
5.2452e-06
5.24522e-06
5.19622e-06
5.0874e-06
4.88365e-06
4.52552e-06
4.88358e-06
5.20106e-06
5.37832e-06
5.47606e-06
5.52282e-06
5.52307e-06
5.47973e-06
5.40605e-06
5.20115e-06
4.87382e-06
5.08735e-06
5.40599e-06
5.56401e-06
5.63847e-06
5.68139e-06
5.682e-06
5.64289e-06
5.56406e-06
5.37838e-06
5.08384e-06
5.1962e-06
5.4797e-06
5.64286e-06
5.73421e-06
5.77524e-06
5.77767e-06
5.73422e-06
5.6385e-06
5.4761e-06
5.19595e-06
5.24521e-06
5.52306e-06
5.682e-06
5.77767e-06
5.83223e-06
5.83223e-06
5.77502e-06
5.68136e-06
5.52283e-06
5.24523e-06
5.24521e-06
5.52284e-06
5.68141e-06
5.77525e-06
5.83226e-06
5.83226e-06
5.77503e-06
5.68136e-06
5.52283e-06
5.24523e-06
5.19594e-06
5.4761e-06
5.6385e-06
5.73425e-06
5.77792e-06
5.77792e-06
5.73424e-06
5.6385e-06
5.4761e-06
5.19595e-06
5.08383e-06
5.37837e-06
5.56406e-06
5.6429e-06
5.68208e-06
5.68208e-06
5.6429e-06
5.56406e-06
5.37838e-06
5.08385e-06
4.87381e-06
5.20114e-06
5.40605e-06
5.47974e-06
5.5231e-06
5.5231e-06
5.47974e-06
5.40605e-06
5.20115e-06
4.87382e-06
4.52551e-06
4.88365e-06
5.0874e-06
5.19623e-06
5.24523e-06
5.24523e-06
5.19623e-06
5.0874e-06
4.88365e-06
4.52551e-06
4.23174e-06
4.63467e-06
4.88231e-06
5.01617e-06
5.07523e-06
5.07526e-06
5.01668e-06
4.88687e-06
4.64539e-06
4.23185e-06
4.64531e-06
5.02185e-06
5.23397e-06
5.35121e-06
5.40718e-06
5.40757e-06
5.35583e-06
5.26449e-06
5.02196e-06
4.63479e-06
4.88681e-06
5.26442e-06
5.45542e-06
5.54685e-06
5.59829e-06
5.59909e-06
5.5519e-06
5.45548e-06
5.23404e-06
4.88239e-06
5.01666e-06
5.3558e-06
5.55186e-06
5.66187e-06
5.71177e-06
5.71447e-06
5.66188e-06
5.54689e-06
5.35126e-06
5.01622e-06
5.07526e-06
5.40756e-06
5.59908e-06
5.71446e-06
5.7797e-06
5.77969e-06
5.71148e-06
5.59823e-06
5.40718e-06
5.07526e-06
5.07524e-06
5.4072e-06
5.59831e-06
5.71179e-06
5.77974e-06
5.77973e-06
5.71149e-06
5.59823e-06
5.40719e-06
5.07526e-06
5.01621e-06
5.35125e-06
5.5469e-06
5.66193e-06
5.7148e-06
5.7148e-06
5.66192e-06
5.5469e-06
5.35126e-06
5.01622e-06
4.88238e-06
5.23404e-06
5.45548e-06
5.55191e-06
5.5992e-06
5.5992e-06
5.55191e-06
5.45548e-06
5.23405e-06
4.88239e-06
4.63477e-06
5.02196e-06
5.2645e-06
5.35584e-06
5.40762e-06
5.40762e-06
5.35584e-06
5.2645e-06
5.02197e-06
4.63479e-06
4.23184e-06
4.6454e-06
4.88687e-06
5.01669e-06
5.07529e-06
5.07529e-06
5.01669e-06
4.88687e-06
4.6454e-06
4.23185e-06
3.95574e-06
4.40493e-06
4.68673e-06
4.841e-06
4.90938e-06
4.90945e-06
4.84174e-06
4.69214e-06
4.41617e-06
3.95585e-06
4.41608e-06
4.8469e-06
5.09227e-06
5.22835e-06
5.2932e-06
5.29374e-06
5.23388e-06
5.12488e-06
4.84702e-06
4.40504e-06
4.69208e-06
5.1248e-06
5.34784e-06
5.45622e-06
5.51594e-06
5.51692e-06
5.4618e-06
5.34791e-06
5.09236e-06
4.68681e-06
4.84171e-06
5.23384e-06
5.46176e-06
5.58999e-06
5.64861e-06
5.65152e-06
5.59e-06
5.45625e-06
5.2284e-06
4.84105e-06
4.90945e-06
5.29373e-06
5.51691e-06
5.65151e-06
5.72702e-06
5.727e-06
5.64825e-06
5.51584e-06
5.29318e-06
4.90941e-06
4.9094e-06
5.29322e-06
5.51596e-06
5.64864e-06
5.72708e-06
5.72705e-06
5.64826e-06
5.51584e-06
5.29319e-06
4.90941e-06
4.84104e-06
5.2284e-06
5.45627e-06
5.59007e-06
5.65194e-06
5.65193e-06
5.59004e-06
5.45626e-06
5.22841e-06
4.84105e-06
4.6868e-06
5.09236e-06
5.34792e-06
5.46183e-06
5.51707e-06
5.51707e-06
5.46183e-06
5.34792e-06
5.09236e-06
4.68681e-06
4.40504e-06
4.84702e-06
5.12489e-06
5.23389e-06
5.29381e-06
5.29381e-06
5.23389e-06
5.12489e-06
4.84702e-06
4.40504e-06
3.95585e-06
4.41618e-06
4.69215e-06
4.84175e-06
4.90948e-06
4.90947e-06
4.84175e-06
4.69214e-06
4.41617e-06
3.95585e-06
3.6966e-06
4.18408e-06
4.49646e-06
4.6698e-06
4.74707e-06
4.74717e-06
4.67078e-06
4.50264e-06
4.19562e-06
3.69671e-06
4.19553e-06
4.67579e-06
4.95287e-06
5.10719e-06
5.18063e-06
5.18132e-06
5.11357e-06
4.98697e-06
4.67593e-06
4.18419e-06
4.50257e-06
4.98688e-06
5.24114e-06
5.36639e-06
5.43421e-06
5.43537e-06
5.37245e-06
5.24122e-06
4.95297e-06
4.49656e-06
4.67076e-06
5.11352e-06
5.37241e-06
5.51848e-06
5.5857e-06
5.58877e-06
5.51848e-06
5.36643e-06
5.10725e-06
4.66986e-06
4.74717e-06
5.18132e-06
5.43536e-06
5.58877e-06
5.6742e-06
5.67417e-06
5.58527e-06
5.43407e-06
5.18059e-06
4.74709e-06
4.74709e-06
5.18065e-06
5.43423e-06
5.58573e-06
5.67427e-06
5.67423e-06
5.58528e-06
5.43407e-06
5.18059e-06
4.74709e-06
4.66985e-06
5.10725e-06
5.36645e-06
5.51858e-06
5.58927e-06
5.58927e-06
5.51854e-06
5.36644e-06
5.10725e-06
4.66986e-06
4.49655e-06
4.95297e-06
5.24122e-06
5.37249e-06
5.43557e-06
5.43557e-06
5.37249e-06
5.24123e-06
4.95297e-06
4.49656e-06
4.18419e-06
4.67593e-06
4.98698e-06
5.11359e-06
5.18143e-06
5.18143e-06
5.11359e-06
4.98698e-06
4.67593e-06
4.18419e-06
3.69671e-06
4.19563e-06
4.50265e-06
4.6708e-06
4.7472e-06
4.7472e-06
4.6708e-06
4.50265e-06
4.19563e-06
3.69671e-06
3.45537e-06
3.97258e-06
4.31172e-06
4.5026e-06
4.58823e-06
4.58838e-06
4.50383e-06
4.31854e-06
3.98425e-06
3.45546e-06
3.98416e-06
4.50861e-06
4.81572e-06
4.98767e-06
5.0694e-06
5.07027e-06
4.99482e-06
4.85084e-06
4.50875e-06
3.97269e-06
4.31848e-06
4.85074e-06
5.13531e-06
5.27733e-06
5.35309e-06
5.35442e-06
5.28382e-06
5.1354e-06
4.81582e-06
4.31182e-06
4.50381e-06
4.99477e-06
5.28377e-06
5.44735e-06
5.52303e-06
5.52623e-06
5.44734e-06
5.27738e-06
4.98773e-06
4.50267e-06
4.58838e-06
5.07026e-06
5.3544e-06
5.52622e-06
5.62127e-06
5.62123e-06
5.52253e-06
5.3529e-06
5.06934e-06
4.58826e-06
4.58826e-06
5.06943e-06
5.35311e-06
5.52307e-06
5.62136e-06
5.62131e-06
5.52255e-06
5.35291e-06
5.06934e-06
4.58826e-06
4.50265e-06
4.98773e-06
5.2774e-06
5.44746e-06
5.52681e-06
5.52681e-06
5.44741e-06
5.27739e-06
4.98773e-06
4.50267e-06
4.31181e-06
4.81582e-06
5.13541e-06
5.28387e-06
5.35468e-06
5.35468e-06
5.28386e-06
5.13542e-06
4.81583e-06
4.31182e-06
3.97268e-06
4.50876e-06
4.85086e-06
4.99485e-06
5.0704e-06
5.0704e-06
4.99485e-06
4.85086e-06
4.50876e-06
3.9727e-06
3.45547e-06
3.98426e-06
4.31856e-06
4.50386e-06
4.58843e-06
4.58843e-06
4.50386e-06
4.31856e-06
3.98427e-06
3.45548e-06
3.2345e-06
3.77137e-06
4.13304e-06
4.33977e-06
4.43316e-06
4.43335e-06
4.34125e-06
4.1404e-06
3.78305e-06
3.23458e-06
3.78297e-06
4.34569e-06
4.68093e-06
4.86982e-06
4.95957e-06
4.9606e-06
4.87767e-06
4.71671e-06
4.34584e-06
3.77149e-06
4.14034e-06
4.7166e-06
5.03047e-06
5.18907e-06
5.27259e-06
5.27409e-06
5.19592e-06
5.03057e-06
4.68105e-06
4.13315e-06
4.34124e-06
4.87762e-06
5.19587e-06
5.37661e-06
5.46062e-06
5.46391e-06
5.37659e-06
5.18911e-06
4.86989e-06
4.33984e-06
4.43336e-06
4.96059e-06
5.27407e-06
5.46391e-06
5.56828e-06
5.56823e-06
5.46005e-06
5.27236e-06
4.95948e-06
4.43319e-06
4.43319e-06
4.9596e-06
5.27262e-06
5.46066e-06
5.56838e-06
5.56832e-06
5.46007e-06
5.27236e-06
4.95948e-06
4.43319e-06
4.33983e-06
4.8699e-06
5.18915e-06
5.37674e-06
5.46457e-06
5.46456e-06
5.37668e-06
5.18912e-06
4.8699e-06
4.33985e-06
4.13314e-06
4.68106e-06
5.03058e-06
5.19598e-06
5.27441e-06
5.27441e-06
5.19598e-06
5.03058e-06
4.68107e-06
4.13316e-06
3.77148e-06
4.34584e-06
4.71673e-06
4.87771e-06
4.96078e-06
4.96078e-06
4.87771e-06
4.71673e-06
4.34585e-06
3.7715e-06
3.23459e-06
3.78308e-06
4.14043e-06
4.3413e-06
4.43342e-06
4.43342e-06
4.3413e-06
4.14044e-06
3.78308e-06
3.2346e-06
3.03706e-06
3.58161e-06
3.9611e-06
4.18178e-06
4.28222e-06
4.28247e-06
4.18351e-06
3.96891e-06
3.5932e-06
3.03711e-06
3.59313e-06
4.18744e-06
4.5487e-06
4.75376e-06
4.85121e-06
4.8524e-06
4.76222e-06
4.58483e-06
4.18759e-06
3.58171e-06
3.96886e-06
4.58472e-06
4.92671e-06
5.10162e-06
5.19275e-06
5.1944e-06
5.10879e-06
4.92682e-06
4.54882e-06
3.96121e-06
4.1835e-06
4.76217e-06
5.10874e-06
5.30629e-06
5.39847e-06
5.40184e-06
5.30626e-06
5.10166e-06
4.75383e-06
4.18186e-06
4.28248e-06
4.8524e-06
5.19439e-06
5.40184e-06
5.51525e-06
5.51519e-06
5.39784e-06
5.19247e-06
4.85109e-06
4.28225e-06
4.28227e-06
4.85125e-06
5.19279e-06
5.39852e-06
5.51537e-06
5.5153e-06
5.39786e-06
5.19248e-06
4.85109e-06
4.28225e-06
4.18185e-06
4.75385e-06
5.10171e-06
5.30645e-06
5.40257e-06
5.40256e-06
5.30637e-06
5.10168e-06
4.75384e-06
4.18186e-06
3.96121e-06
4.54883e-06
4.92684e-06
5.10887e-06
5.19479e-06
5.19479e-06
5.10887e-06
4.92684e-06
4.54884e-06
3.96123e-06
3.58172e-06
4.18761e-06
4.58485e-06
4.76228e-06
4.85263e-06
4.85263e-06
4.76228e-06
4.58486e-06
4.18761e-06
3.58173e-06
3.03714e-06
3.59323e-06
3.96895e-06
4.18356e-06
4.28256e-06
4.28256e-06
4.18356e-06
3.96895e-06
3.59323e-06
3.03714e-06
2.86871e-06
3.40494e-06
3.79669e-06
4.02916e-06
4.13587e-06
4.13616e-06
4.03113e-06
3.80485e-06
3.41638e-06
2.86874e-06
3.41632e-06
4.03438e-06
4.41922e-06
4.6396e-06
4.74441e-06
4.74576e-06
4.64859e-06
4.45547e-06
4.03453e-06
3.40503e-06
3.8048e-06
4.45536e-06
4.82416e-06
5.01503e-06
5.11361e-06
5.1154e-06
5.02248e-06
4.82426e-06
4.41935e-06
3.7968e-06
4.03112e-06
4.64854e-06
5.02243e-06
5.23642e-06
5.33661e-06
5.34004e-06
5.23638e-06
5.01506e-06
4.63966e-06
4.02924e-06
4.13619e-06
4.74576e-06
5.11538e-06
5.34004e-06
5.46223e-06
5.46216e-06
5.33592e-06
5.11327e-06
4.74425e-06
4.13589e-06
4.13592e-06
4.74445e-06
5.11365e-06
5.33667e-06
5.46237e-06
5.46228e-06
5.33595e-06
5.11328e-06
4.74426e-06
4.13589e-06
4.02924e-06
4.63969e-06
5.01512e-06
5.2366e-06
5.34084e-06
5.34083e-06
5.23651e-06
5.01508e-06
4.63967e-06
4.02924e-06
3.7968e-06
4.41936e-06
4.82429e-06
5.02257e-06
5.11584e-06
5.11584e-06
5.02257e-06
4.82429e-06
4.41936e-06
3.79681e-06
3.40504e-06
4.03454e-06
4.4555e-06
4.64865e-06
4.74604e-06
4.74604e-06
4.64865e-06
4.4555e-06
4.03455e-06
3.40505e-06
2.86876e-06
3.41641e-06
3.80489e-06
4.03118e-06
4.13627e-06
4.13627e-06
4.03118e-06
3.80489e-06
3.41641e-06
2.86876e-06
2.73716e-06
3.24349e-06
3.6407e-06
3.88245e-06
3.99454e-06
3.99489e-06
3.88464e-06
3.64912e-06
3.25474e-06
2.73715e-06
3.25469e-06
3.88706e-06
4.2927e-06
4.52744e-06
4.63927e-06
4.64077e-06
4.53688e-06
4.32889e-06
3.88719e-06
3.24356e-06
3.64908e-06
4.32878e-06
4.7229e-06
4.92933e-06
5.03518e-06
5.0371e-06
4.93702e-06
4.723e-06
4.29283e-06
3.64079e-06
3.88462e-06
4.53683e-06
4.93696e-06
5.16702e-06
5.27505e-06
5.27852e-06
5.16697e-06
4.92935e-06
4.5275e-06
3.88252e-06
3.9949e-06
4.64076e-06
5.03708e-06
5.27852e-06
5.40924e-06
5.40915e-06
5.2743e-06
5.03478e-06
4.63906e-06
3.99453e-06
3.99458e-06
4.63931e-06
5.03522e-06
5.27511e-06
5.40939e-06
5.40929e-06
5.27433e-06
5.03479e-06
4.63906e-06
3.99454e-06
3.88252e-06
4.52753e-06
4.92943e-06
5.16721e-06
5.27939e-06
5.27937e-06
5.16711e-06
4.92937e-06
4.5275e-06
3.88252e-06
3.64079e-06
4.29284e-06
4.72303e-06
4.93712e-06
5.0376e-06
5.0376e-06
4.93712e-06
4.72303e-06
4.29284e-06
3.6408e-06
3.24357e-06
3.88721e-06
4.32892e-06
4.53695e-06
4.64108e-06
4.64108e-06
4.53695e-06
4.32892e-06
3.88721e-06
3.24357e-06
2.73717e-06
3.25477e-06
3.64916e-06
3.88469e-06
3.99501e-06
3.995e-06
3.88469e-06
3.64916e-06
3.25477e-06
2.73717e-06
2.65832e-06
3.10105e-06
3.49438e-06
3.74232e-06
3.85873e-06
3.85913e-06
3.74471e-06
3.50302e-06
3.11211e-06
2.65825e-06
3.11206e-06
3.74623e-06
4.16938e-06
4.4174e-06
4.53586e-06
4.5375e-06
4.42722e-06
4.20536e-06
3.74635e-06
3.1011e-06
3.50297e-06
4.20526e-06
4.62302e-06
4.84455e-06
4.95748e-06
4.95952e-06
4.85244e-06
4.62313e-06
4.1695e-06
3.49446e-06
3.74469e-06
4.42716e-06
4.85238e-06
5.0981e-06
5.2138e-06
5.21729e-06
5.09803e-06
4.84455e-06
4.41744e-06
3.74238e-06
3.85914e-06
4.53749e-06
4.9595e-06
5.2173e-06
5.3563e-06
5.35619e-06
5.21298e-06
4.95702e-06
4.5356e-06
3.8587e-06
3.85876e-06
4.53589e-06
4.95752e-06
5.21386e-06
5.35646e-06
5.35635e-06
5.21302e-06
4.95703e-06
4.5356e-06
3.8587e-06
3.74238e-06
4.41748e-06
4.84465e-06
5.0983e-06
5.21822e-06
5.2182e-06
5.09818e-06
4.84458e-06
4.41745e-06
3.74238e-06
3.49445e-06
4.16951e-06
4.62315e-06
4.85255e-06
4.96009e-06
4.96008e-06
4.85254e-06
4.62315e-06
4.16951e-06
3.49447e-06
3.1011e-06
3.74636e-06
4.20539e-06
4.42729e-06
4.53785e-06
4.53786e-06
4.42729e-06
4.20539e-06
3.74637e-06
3.1011e-06
2.65826e-06
3.11211e-06
3.50304e-06
3.74476e-06
3.85925e-06
3.85925e-06
3.74475e-06
3.50304e-06
3.11212e-06
2.65827e-06
2.65448e-06
2.98317e-06
3.35956e-06
3.60969e-06
3.7291e-06
3.72956e-06
3.61226e-06
3.36835e-06
2.99404e-06
2.65433e-06
2.994e-06
3.61293e-06
4.04953e-06
4.30958e-06
4.43426e-06
4.43602e-06
4.31971e-06
4.08519e-06
3.61305e-06
2.98318e-06
3.36831e-06
4.08509e-06
4.52462e-06
4.76071e-06
4.88054e-06
4.88268e-06
4.76876e-06
4.52472e-06
4.04964e-06
3.35962e-06
3.61224e-06
4.31965e-06
4.76871e-06
5.02966e-06
5.15286e-06
5.15637e-06
5.02958e-06
4.7607e-06
4.3096e-06
3.60972e-06
3.72956e-06
4.43601e-06
4.88266e-06
5.15639e-06
5.30342e-06
5.30331e-06
5.15199e-06
4.88001e-06
4.43394e-06
3.72904e-06
3.72912e-06
4.43429e-06
4.88057e-06
5.15293e-06
5.3036e-06
5.30347e-06
5.15203e-06
4.88001e-06
4.43395e-06
3.72904e-06
3.60973e-06
4.30965e-06
4.76081e-06
5.02988e-06
5.15736e-06
5.15733e-06
5.02975e-06
4.76073e-06
4.30961e-06
3.60973e-06
3.35961e-06
4.04965e-06
4.52475e-06
4.76889e-06
4.8833e-06
4.8833e-06
4.76888e-06
4.52474e-06
4.04965e-06
3.35963e-06
2.98319e-06
3.61305e-06
4.08521e-06
4.31978e-06
4.43642e-06
4.43642e-06
4.31978e-06
4.08522e-06
3.61305e-06
2.98318e-06
2.65434e-06
2.99403e-06
3.36837e-06
3.6123e-06
3.72969e-06
3.72969e-06
3.6123e-06
3.36836e-06
2.99405e-06
2.65434e-06
2.7727e-06
2.89956e-06
3.23938e-06
3.48591e-06
3.60659e-06
3.60709e-06
3.48865e-06
3.2483e-06
2.91028e-06
2.77239e-06
2.91026e-06
3.48883e-06
3.93352e-06
4.20412e-06
4.33455e-06
4.33643e-06
4.2145e-06
3.96879e-06
3.48893e-06
2.89951e-06
3.24826e-06
3.96868e-06
4.42778e-06
4.67784e-06
4.80435e-06
4.80659e-06
4.68602e-06
4.42787e-06
3.93362e-06
3.23942e-06
3.48863e-06
4.21444e-06
4.68597e-06
4.96173e-06
5.09224e-06
5.09577e-06
4.96163e-06
4.67781e-06
4.20413e-06
3.48593e-06
3.6071e-06
4.33641e-06
4.80657e-06
5.09579e-06
5.25063e-06
5.2505e-06
5.09132e-06
4.80376e-06
4.33418e-06
3.6065e-06
3.60661e-06
4.33458e-06
4.80438e-06
5.09232e-06
5.25083e-06
5.25068e-06
5.09137e-06
4.80377e-06
4.33418e-06
3.6065e-06
3.48595e-06
4.20419e-06
4.67794e-06
4.96197e-06
5.09681e-06
5.09678e-06
4.96182e-06
4.67784e-06
4.20414e-06
3.48594e-06
3.23943e-06
3.93363e-06
4.42791e-06
4.68617e-06
4.80727e-06
4.80727e-06
4.68615e-06
4.4279e-06
3.93363e-06
3.23944e-06
2.89953e-06
3.48894e-06
3.96881e-06
4.21459e-06
4.33688e-06
4.33688e-06
4.21459e-06
3.96881e-06
3.48894e-06
2.89952e-06
2.7724e-06
2.91026e-06
3.24831e-06
3.48869e-06
3.60724e-06
3.60724e-06
3.48869e-06
3.2483e-06
2.91028e-06
2.7724e-06
3.07905e-06
2.86583e-06
3.13869e-06
3.37328e-06
3.49269e-06
3.49325e-06
3.37617e-06
3.1477e-06
2.87648e-06
3.07849e-06
2.87648e-06
3.37646e-06
3.82195e-06
4.1012e-06
4.23683e-06
4.23881e-06
4.11178e-06
3.85674e-06
3.37654e-06
2.86568e-06
3.14767e-06
3.85665e-06
4.33261e-06
4.59596e-06
4.72893e-06
4.73126e-06
4.60424e-06
4.3327e-06
3.82204e-06
3.1387e-06
3.37616e-06
4.11173e-06
4.6042e-06
4.89431e-06
5.03196e-06
5.03549e-06
4.89419e-06
4.59591e-06
4.1012e-06
3.37329e-06
3.49326e-06
4.2388e-06
4.73124e-06
5.03551e-06
5.19795e-06
5.1978e-06
5.03099e-06
4.72828e-06
4.23641e-06
3.49259e-06
3.49272e-06
4.23686e-06
4.72897e-06
5.03204e-06
5.19815e-06
5.198e-06
5.03104e-06
4.72829e-06
4.23642e-06
3.49259e-06
3.37331e-06
4.10128e-06
4.59606e-06
4.89456e-06
5.03659e-06
5.03655e-06
4.89439e-06
4.59595e-06
4.10121e-06
3.37331e-06
3.13872e-06
3.82206e-06
4.33275e-06
4.60442e-06
4.73201e-06
4.73201e-06
4.6044e-06
4.33273e-06
3.82205e-06
3.13874e-06
2.86573e-06
3.37656e-06
3.85677e-06
4.11189e-06
4.23932e-06
4.23932e-06
4.11189e-06
3.85678e-06
3.37656e-06
2.8657e-06
3.07847e-06
2.87644e-06
3.14772e-06
3.37622e-06
3.49342e-06
3.49342e-06
3.37621e-06
3.14769e-06
2.87648e-06
3.07847e-06
3.70886e-06
2.90483e-06
3.06492e-06
3.27519e-06
3.38971e-06
3.39032e-06
3.27823e-06
3.07403e-06
2.91556e-06
3.70783e-06
2.91559e-06
3.28007e-06
3.71569e-06
4.00111e-06
4.14125e-06
4.14333e-06
4.01184e-06
3.74998e-06
3.28013e-06
2.90453e-06
3.07401e-06
3.7499e-06
4.23928e-06
4.51511e-06
4.65431e-06
4.65671e-06
4.52348e-06
4.23936e-06
3.71577e-06
3.0649e-06
3.27823e-06
4.0118e-06
4.52344e-06
4.82741e-06
4.97201e-06
4.97554e-06
4.82728e-06
4.51505e-06
4.0011e-06
3.2752e-06
3.39034e-06
4.14333e-06
4.6567e-06
4.97557e-06
5.14538e-06
5.14522e-06
4.971e-06
4.6536e-06
4.14079e-06
3.38959e-06
3.38975e-06
4.14129e-06
4.65436e-06
4.9721e-06
5.1456e-06
5.14543e-06
4.97106e-06
4.65362e-06
4.1408e-06
3.3896e-06
3.27523e-06
4.00119e-06
4.51522e-06
4.82768e-06
4.97669e-06
4.97665e-06
4.82749e-06
4.51509e-06
4.00112e-06
3.27523e-06
3.06492e-06
3.7158e-06
4.23941e-06
4.52367e-06
4.65753e-06
4.65752e-06
4.52365e-06
4.2394e-06
3.71579e-06
3.06495e-06
2.90462e-06
3.28015e-06
3.75002e-06
4.01197e-06
4.14389e-06
4.14389e-06
4.01197e-06
3.75002e-06
3.28016e-06
2.90457e-06
3.70775e-06
2.91548e-06
3.07404e-06
3.2783e-06
3.39052e-06
3.39052e-06
3.27828e-06
3.07401e-06
2.91553e-06
3.70775e-06
4.84263e-06
3.05547e-06
3.02973e-06
3.19685e-06
3.30111e-06
3.30177e-06
3.20003e-06
3.03896e-06
3.0665e-06
4.84095e-06
3.0666e-06
3.20573e-06
3.61615e-06
3.90426e-06
4.04802e-06
4.05018e-06
3.91511e-06
3.64992e-06
3.20576e-06
3.05495e-06
3.03896e-06
3.64985e-06
4.14799e-06
4.43534e-06
4.5805e-06
4.58296e-06
4.44376e-06
4.14806e-06
3.61622e-06
3.02964e-06
3.20004e-06
3.91508e-06
4.44373e-06
4.76104e-06
4.91241e-06
4.91593e-06
4.76089e-06
4.43526e-06
3.90425e-06
3.19684e-06
3.30179e-06
4.05019e-06
4.58296e-06
4.91598e-06
5.09294e-06
5.09276e-06
4.91136e-06
4.57973e-06
4.04752e-06
3.30097e-06
3.30115e-06
4.04807e-06
4.58055e-06
4.91251e-06
5.09318e-06
5.09299e-06
4.91142e-06
4.57975e-06
4.04753e-06
3.30098e-06
3.19689e-06
3.90435e-06
4.43546e-06
4.76133e-06
4.91714e-06
4.91709e-06
4.76113e-06
4.43531e-06
3.90426e-06
3.19688e-06
3.02968e-06
3.61626e-06
4.14813e-06
4.44399e-06
4.58385e-06
4.58384e-06
4.44396e-06
4.14811e-06
3.61625e-06
3.02973e-06
3.05507e-06
3.2058e-06
3.64998e-06
3.91526e-06
4.05081e-06
4.05081e-06
3.91525e-06
3.64997e-06
3.2058e-06
3.055e-06
4.84074e-06
3.06636e-06
3.03896e-06
3.2001e-06
3.302e-06
3.30199e-06
3.20007e-06
3.03891e-06
3.06644e-06
4.84077e-06
6.88016e-06
3.37543e-06
3.05057e-06
3.14677e-06
3.23277e-06
3.23348e-06
3.15009e-06
3.05998e-06
3.38704e-06
6.87696e-06
3.38725e-06
3.16324e-06
3.52545e-06
3.81132e-06
3.95748e-06
3.95971e-06
3.82225e-06
3.55871e-06
3.16323e-06
3.37451e-06
3.05999e-06
3.55866e-06
4.05908e-06
4.35672e-06
4.50752e-06
4.51004e-06
4.36518e-06
4.05914e-06
3.52552e-06
3.05037e-06
3.1501e-06
3.82223e-06
4.36516e-06
4.69523e-06
4.85317e-06
4.85668e-06
4.69507e-06
4.35662e-06
3.8113e-06
3.14673e-06
3.2335e-06
3.95973e-06
4.51005e-06
4.85673e-06
5.04065e-06
5.04046e-06
4.85208e-06
4.5067e-06
3.95694e-06
3.2326e-06
3.23281e-06
3.95754e-06
4.50758e-06
4.85328e-06
5.0409e-06
5.0407e-06
4.85215e-06
4.50672e-06
3.95694e-06
3.23261e-06
3.14678e-06
3.81142e-06
4.35684e-06
4.69553e-06
4.85793e-06
4.85788e-06
4.69532e-06
4.35667e-06
3.81132e-06
3.14678e-06
3.05042e-06
3.52556e-06
4.05922e-06
4.36543e-06
4.51099e-06
4.51098e-06
4.3654e-06
4.0592e-06
3.52555e-06
3.05049e-06
3.37464e-06
3.16326e-06
3.55877e-06
3.82242e-06
3.9604e-06
3.9604e-06
3.82241e-06
3.55877e-06
3.16327e-06
3.37458e-06
6.87652e-06
3.38681e-06
3.05995e-06
3.15015e-06
3.23372e-06
3.23371e-06
3.15011e-06
3.05988e-06
3.38692e-06
6.87669e-06
1.0266e-05
3.97007e-06
3.15719e-06
3.13687e-06
3.1927e-06
3.19345e-06
3.14034e-06
3.16689e-06
3.98272e-06
1.02604e-05
3.98329e-06
3.16661e-06
3.44689e-06
3.72336e-06
3.87018e-06
3.87248e-06
3.73435e-06
3.47969e-06
3.16655e-06
3.96851e-06
3.16696e-06
3.47963e-06
3.97301e-06
4.27934e-06
4.43541e-06
4.43798e-06
4.28782e-06
3.97306e-06
3.44694e-06
3.15682e-06
3.14035e-06
3.73432e-06
4.2878e-06
4.62999e-06
4.7943e-06
4.79779e-06
4.62981e-06
4.27923e-06
3.72333e-06
3.13677e-06
3.19347e-06
3.87249e-06
4.43798e-06
4.79785e-06
4.98852e-06
4.98832e-06
4.79317e-06
4.43453e-06
3.86959e-06
3.19248e-06
3.19272e-06
3.87023e-06
4.43546e-06
4.79441e-06
4.98878e-06
4.98856e-06
4.79324e-06
4.43455e-06
3.8696e-06
3.1925e-06
3.13684e-06
3.72345e-06
4.27946e-06
4.6303e-06
4.79909e-06
4.79903e-06
4.63007e-06
4.27928e-06
3.72335e-06
3.13685e-06
3.15692e-06
3.44698e-06
3.97314e-06
4.28809e-06
4.43898e-06
4.43897e-06
4.28805e-06
3.97312e-06
3.44698e-06
3.157e-06
3.96876e-06
3.16656e-06
3.47975e-06
3.73453e-06
3.87322e-06
3.87321e-06
3.73453e-06
3.47975e-06
3.16659e-06
3.9686e-06
1.026e-05
3.98237e-06
3.16682e-06
3.14039e-06
3.19371e-06
3.19369e-06
3.14032e-06
3.16671e-06
3.9825e-06
1.026e-05
1.52698e-05
4.9984e-06
3.38858e-06
3.18614e-06
3.19358e-06
3.19438e-06
3.18978e-06
3.39872e-06
5.01273e-06
1.52614e-05
5.01381e-06
3.23928e-06
3.38579e-06
3.64207e-06
3.787e-06
3.78936e-06
3.65309e-06
3.4182e-06
3.2391e-06
4.99583e-06
3.3989e-06
3.41816e-06
3.89058e-06
4.20336e-06
4.36422e-06
4.36682e-06
4.21184e-06
3.89062e-06
3.3858e-06
3.38796e-06
3.18982e-06
3.65305e-06
4.21183e-06
4.56535e-06
4.73581e-06
4.73928e-06
4.56515e-06
4.20322e-06
3.642e-06
3.18595e-06
3.1944e-06
3.78936e-06
4.36683e-06
4.73935e-06
4.93656e-06
4.93634e-06
4.73464e-06
4.36328e-06
3.78636e-06
3.1933e-06
3.19358e-06
3.78703e-06
4.36426e-06
4.73592e-06
4.93683e-06
4.9366e-06
4.73472e-06
4.3633e-06
3.78636e-06
3.19333e-06
3.18606e-06
3.64212e-06
4.20347e-06
4.56567e-06
4.74061e-06
4.74055e-06
4.56542e-06
4.20328e-06
3.64202e-06
3.18608e-06
3.38813e-06
3.38582e-06
3.89069e-06
4.21212e-06
4.36787e-06
4.36786e-06
4.21208e-06
3.89068e-06
3.38584e-06
3.38822e-06
4.99641e-06
3.2391e-06
3.41823e-06
3.65326e-06
3.79012e-06
3.79012e-06
3.65326e-06
3.41824e-06
3.23912e-06
4.99604e-06
1.5262e-05
5.01244e-06
3.39865e-06
3.18982e-06
3.19465e-06
3.19462e-06
3.18971e-06
3.39845e-06
5.01239e-06
1.52611e-05
2.19628e-05
6.61497e-06
3.81105e-06
3.32294e-06
3.25576e-06
3.25662e-06
3.32682e-06
3.82199e-06
6.63245e-06
2.19536e-05
6.63398e-06
3.4055e-06
3.34881e-06
3.57e-06
3.70939e-06
3.71179e-06
3.58104e-06
3.38095e-06
3.40516e-06
6.61153e-06
3.82231e-06
3.38094e-06
3.81287e-06
4.129e-06
4.29401e-06
4.29665e-06
4.13746e-06
3.81288e-06
3.34873e-06
3.8102e-06
3.32692e-06
3.581e-06
4.13746e-06
4.50134e-06
4.67771e-06
4.68116e-06
4.50111e-06
4.12882e-06
3.56986e-06
3.3227e-06
3.25667e-06
3.71177e-06
4.29665e-06
4.68124e-06
4.88479e-06
4.88456e-06
4.6765e-06
4.29301e-06
3.70866e-06
3.25544e-06
3.25576e-06
3.70939e-06
4.29405e-06
4.67783e-06
4.88506e-06
4.88482e-06
4.67658e-06
4.29303e-06
3.70866e-06
3.25548e-06
3.32283e-06
3.57e-06
4.12909e-06
4.50166e-06
4.68252e-06
4.68245e-06
4.5014e-06
4.12888e-06
3.56988e-06
3.32288e-06
3.81044e-06
3.34875e-06
3.81296e-06
4.13775e-06
4.29774e-06
4.29772e-06
4.13771e-06
3.81293e-06
3.34876e-06
3.81062e-06
6.61238e-06
3.40517e-06
3.38096e-06
3.5812e-06
3.71257e-06
3.71256e-06
3.58119e-06
3.38095e-06
3.40517e-06
6.61209e-06
2.19546e-05
6.63218e-06
3.82194e-06
3.32688e-06
3.25692e-06
3.25688e-06
3.32672e-06
3.82165e-06
6.63213e-06
2.19539e-05
3.01453e-05
9.36397e-06
4.53018e-06
3.58869e-06
3.40402e-06
3.40497e-06
3.59291e-06
4.54239e-06
9.38553e-06
3.01369e-05
9.38728e-06
3.72215e-06
3.34732e-06
3.51114e-06
3.63963e-06
3.64207e-06
3.5222e-06
3.37943e-06
3.72163e-06
9.35948e-06
4.54278e-06
3.37948e-06
3.74162e-06
4.05663e-06
4.22493e-06
4.22759e-06
4.06505e-06
3.74158e-06
3.34713e-06
4.52905e-06
3.59305e-06
3.52218e-06
4.06507e-06
4.43801e-06
4.62002e-06
4.62344e-06
4.43775e-06
4.05641e-06
3.51092e-06
3.58838e-06
3.40502e-06
3.64205e-06
4.2276e-06
4.62353e-06
4.83322e-06
4.83297e-06
4.61877e-06
4.22386e-06
3.6388e-06
3.40367e-06
3.40401e-06
3.63961e-06
4.22496e-06
4.62014e-06
4.83349e-06
4.83324e-06
4.61885e-06
4.22388e-06
3.63881e-06
3.40374e-06
3.58847e-06
3.51111e-06
4.05671e-06
4.43833e-06
4.62483e-06
4.62476e-06
4.43805e-06
4.05646e-06
3.51095e-06
3.58867e-06
4.52921e-06
3.3472e-06
3.74168e-06
4.06536e-06
4.22872e-06
4.2287e-06
4.06531e-06
3.74163e-06
3.34718e-06
4.52968e-06
9.36011e-06
3.72164e-06
3.37944e-06
3.52236e-06
3.64286e-06
3.64285e-06
3.52233e-06
3.37941e-06
3.72166e-06
9.36034e-06
3.01365e-05
9.38471e-06
4.54226e-06
3.593e-06
3.40531e-06
3.40525e-06
3.59274e-06
4.54187e-06
9.3849e-06
3.01371e-05
3.93845e-05
1.34771e-05
5.67237e-06
4.04817e-06
3.68432e-06
3.68537e-06
4.05287e-06
5.68628e-06
1.3502e-05
3.9378e-05
1.3504e-05
4.26071e-06
3.3957e-06
3.4709e-06
3.58107e-06
3.58355e-06
3.48203e-06
3.42813e-06
4.26e-06
1.34715e-05
5.68677e-06
3.42824e-06
3.6793e-06
3.98679e-06
4.15719e-06
4.15987e-06
3.99517e-06
3.67922e-06
3.39541e-06
5.67091e-06
4.05305e-06
3.48202e-06
3.99521e-06
4.37542e-06
4.56275e-06
4.56614e-06
4.37514e-06
3.98653e-06
3.47062e-06
4.04776e-06
3.68543e-06
3.58353e-06
4.15988e-06
4.56624e-06
4.78185e-06
4.78158e-06
4.56146e-06