/*--------------------------------*- C++ -*----------------------------------*\
| =========                 |                                                 |
| \\      /  F ield         | OpenFOAM: The Open Source CFD Toolbox           |
|  \\    /   O peration     | Version:  2406                                  |
|   \\  /    A nd           | Website:  www.openfoam.com                      |
|    \\/     M anipulation  |                                                 |
\*---------------------------------------------------------------------------*/
FoamFile
{
    version     2.0;
    format      ascii;
    arch        "LSB;label=32;scalar=64";
    class       volSymmTensorField;
    location    "200";
    object      turbulenceProperties:R;
}
// * * * * * * * * * * * * * * * * * * * * * * * * * * * * * * * * * * * * * //

dimensions      [0 2 -2 0 0 0 0];

internalField   nonuniform List<symmTensor> 
25000
(
(2.65916e-05 -1.48781e-06 -5.91102e-07 2.65896e-05 -5.90659e-07 2.2002e-05)
(2.61861e-05 6.88371e-07 -4.14111e-07 2.48343e-05 -5.2485e-07 2.06846e-05)
(2.3628e-05 4.14381e-07 -2.92585e-07 2.31802e-05 -5.41051e-07 1.87933e-05)
(2.30986e-05 2.57226e-07 -1.74348e-07 2.29489e-05 -5.43566e-07 1.84335e-05)
(2.28294e-05 8.94967e-08 -5.80295e-08 2.28193e-05 -5.44105e-07 1.82507e-05)
(2.28306e-05 -9.02069e-08 5.80944e-08 2.282e-05 -5.44126e-07 1.82515e-05)
(2.31055e-05 -2.58134e-07 1.74308e-07 2.29536e-05 -5.43645e-07 1.84383e-05)
(2.36466e-05 -4.16272e-07 2.92131e-07 2.31932e-05 -5.41142e-07 1.88066e-05)
(2.61852e-05 -6.89597e-07 4.1472e-07 2.48307e-05 -5.25356e-07 2.0683e-05)
(2.65471e-05 1.49307e-06 5.91102e-07 2.65476e-05 -5.90942e-07 2.1977e-05)
(2.48386e-05 6.89489e-07 -5.25483e-07 2.61894e-05 -4.14012e-07 2.06871e-05)
(2.48187e-05 4.71149e-07 -4.11289e-07 2.48174e-05 -4.10966e-07 1.99303e-05)
(2.26867e-05 3.14215e-07 -3.05599e-07 2.2757e-05 -4.19064e-07 1.81901e-05)
(2.15901e-05 1.82382e-07 -1.85005e-07 2.16459e-05 -4.26774e-07 1.72712e-05)
(2.1063e-05 5.95454e-08 -6.17943e-08 2.11049e-05 -4.30907e-07 1.68263e-05)
(2.10643e-05 -6.03978e-08 6.17876e-08 2.11059e-05 -4.30928e-07 1.68272e-05)
(2.15947e-05 -1.83443e-07 1.84889e-07 2.16494e-05 -4.26848e-07 1.72744e-05)
(2.27026e-05 -3.16941e-07 3.05536e-07 2.27723e-05 -4.19456e-07 1.8201e-05)
(2.48261e-05 -4.76885e-07 4.10886e-07 2.48267e-05 -4.10672e-07 1.99379e-05)
(2.48272e-05 -6.89333e-07 5.25304e-07 2.61821e-05 -4.14354e-07 2.06812e-05)
(2.31768e-05 4.15795e-07 -5.41367e-07 2.36246e-05 -2.92507e-07 1.8791e-05)
(2.27665e-05 3.15141e-07 -4.19716e-07 2.2695e-05 -3.05669e-07 1.81956e-05)
(2.11064e-05 2.14208e-07 -3.09663e-07 2.11057e-05 -3.09441e-07 1.68566e-05)
(2.01156e-05 1.27317e-07 -1.88434e-07 2.01311e-05 -3.12061e-07 1.60448e-05)
(1.96361e-05 4.16736e-08 -6.3101e-08 1.96562e-05 -3.13704e-07 1.56489e-05)
(1.9637e-05 -4.28697e-08 6.30604e-08 1.9657e-05 -3.13712e-07 1.56496e-05)
(2.01189e-05 -1.2879e-07 1.88364e-07 2.01345e-05 -3.12096e-07 1.60473e-05)
(2.11081e-05 -2.16172e-07 3.09541e-07 2.11084e-05 -3.09355e-07 1.68585e-05)
(2.27612e-05 -3.16592e-07 4.19306e-07 2.26925e-05 -3.05091e-07 1.81943e-05)
(2.31935e-05 -4.16136e-07 5.41269e-07 2.36477e-05 -2.91942e-07 1.88072e-05)
(2.29453e-05 2.58072e-07 -5.4379e-07 2.30958e-05 -1.74332e-07 1.84312e-05)
(2.16446e-05 1.83146e-07 -4.27013e-07 2.15884e-05 -1.84905e-07 1.727e-05)
(2.0132e-05 1.27643e-07 -3.12299e-07 2.01156e-05 -1.88308e-07 1.6045e-05)
(1.91572e-05 7.71666e-08 -1.89967e-07 1.91568e-05 -1.89807e-07 1.52491e-05)
(1.86756e-05 2.53144e-08 -6.36565e-08 1.86812e-05 -1.90593e-07 1.48542e-05)
(1.86769e-05 -2.64171e-08 6.36372e-08 1.86827e-05 -1.906e-07 1.48552e-05)
(1.9159e-05 -7.83203e-08 1.89928e-07 1.91592e-05 -1.89773e-07 1.52508e-05)
(2.01338e-05 -1.28679e-07 3.12248e-07 2.01189e-05 -1.88187e-07 1.60473e-05)
(2.16498e-05 -1.83314e-07 4.27045e-07 2.1596e-05 -1.84732e-07 1.72751e-05)
(2.29545e-05 -2.5795e-07 5.4379e-07 2.31075e-05 -1.74152e-07 1.84395e-05)
(2.28162e-05 9.00887e-08 -5.44252e-07 2.28273e-05 -5.80362e-08 1.82487e-05)
(2.11027e-05 6.01755e-08 -4.31091e-07 2.10609e-05 -6.17437e-08 1.68246e-05)
(1.96555e-05 4.20664e-08 -3.13885e-07 1.96351e-05 -6.30098e-08 1.56483e-05)
(1.8682e-05 2.5483e-08 -1.90756e-07 1.86757e-05 -6.35507e-08 1.48544e-05)
(1.82001e-05 8.23612e-09 -6.39614e-08 1.81999e-05 -6.38452e-08 1.44597e-05)
(1.82007e-05 -9.05171e-09 6.3957e-08 1.82006e-05 -6.38393e-08 1.44602e-05)
(1.86828e-05 -2.62328e-08 1.90742e-07 1.86772e-05 -6.35196e-08 1.48555e-05)
(1.96585e-05 -4.25941e-08 3.13898e-07 1.96391e-05 -6.29526e-08 1.56511e-05)
(2.11078e-05 -6.01846e-08 4.31133e-07 2.10673e-05 -6.16732e-08 1.68291e-05)
(2.28217e-05 -8.99691e-08 5.44285e-07 2.28336e-05 -5.79705e-08 1.82533e-05)
(2.28178e-05 -8.98247e-08 -5.44236e-07 2.28292e-05 5.8073e-08 1.82501e-05)
(2.1104e-05 -5.9886e-08 -4.31069e-07 2.10628e-05 6.18075e-08 1.68258e-05)
(1.96559e-05 -4.24827e-08 -3.13861e-07 1.96359e-05 6.31138e-08 1.56488e-05)
(1.86817e-05 -2.62009e-08 -1.90724e-07 1.86756e-05 6.37061e-08 1.48544e-05)
(1.82007e-05 -8.96834e-09 -6.39502e-08 1.82003e-05 6.40395e-08 1.44601e-05)
(1.82011e-05 8.42365e-09 6.39577e-08 1.82009e-05 6.40424e-08 1.44604e-05)
(1.86832e-05 2.57371e-08 1.90735e-07 1.86774e-05 6.37151e-08 1.48557e-05)
(1.96588e-05 4.22273e-08 3.1389e-07 1.96393e-05 6.3133e-08 1.56513e-05)
(2.1108e-05 5.99333e-08 4.31125e-07 2.10674e-05 6.18354e-08 1.68292e-05)
(2.28218e-05 8.98563e-08 5.44283e-07 2.28336e-05 5.81143e-08 1.82534e-05)
(2.29518e-05 -2.57822e-07 -5.43712e-07 2.31045e-05 1.74277e-07 1.84372e-05)
(2.1647e-05 -1.83054e-07 -4.26953e-07 2.15929e-05 1.84891e-07 1.72727e-05)
(2.01321e-05 -1.28467e-07 -3.12188e-07 2.01166e-05 1.88368e-07 1.60457e-05)
(1.91586e-05 -7.81162e-08 -1.89894e-07 1.91583e-05 1.89972e-07 1.52503e-05)
(1.86778e-05 -2.61291e-08 -6.36286e-08 1.86831e-05 1.90808e-07 1.48557e-05)
(1.86782e-05 2.5778e-08 6.36374e-08 1.86836e-05 1.90806e-07 1.4856e-05)
(1.916e-05 7.7843e-08 1.8991e-07 1.91598e-05 1.89968e-07 1.52514e-05)
(2.01346e-05 1.28326e-07 3.12223e-07 2.01192e-05 1.88366e-07 1.60477e-05)
(2.16505e-05 1.83079e-07 4.27018e-07 2.15964e-05 1.84893e-07 1.72755e-05)
(2.29548e-05 2.57839e-07 5.43782e-07 2.31076e-05 1.74298e-07 1.84397e-05)
(2.31918e-05 -4.16097e-07 -5.41172e-07 2.36459e-05 2.92093e-07 1.88058e-05)
(2.27595e-05 -3.16398e-07 -4.19187e-07 2.26905e-05 3.05264e-07 1.81927e-05)
(2.11071e-05 -2.15958e-07 -3.09465e-07 2.1107e-05 3.09549e-07 1.68575e-05)
(2.01194e-05 -1.28546e-07 -1.88317e-07 2.01343e-05 3.12298e-07 1.60474e-05)
(1.96388e-05 -4.25026e-08 -6.30504e-08 1.96579e-05 3.13923e-07 1.56507e-05)
(1.96391e-05 4.22774e-08 6.30537e-08 1.96583e-05 3.13919e-07 1.5651e-05)
(2.01205e-05 1.28363e-07 1.8833e-07 2.01354e-05 3.12287e-07 1.60483e-05)
(2.11093e-05 2.15863e-07 3.09499e-07 2.11091e-05 3.09531e-07 1.68591e-05)
(2.27623e-05 3.16394e-07 4.19265e-07 2.2693e-05 3.05251e-07 1.81949e-05)
(2.31938e-05 4.16014e-07 5.41258e-07 2.36478e-05 2.92092e-07 1.88073e-05)
(2.48256e-05 -6.893e-07 -5.25198e-07 2.61804e-05 4.14548e-07 2.06799e-05)
(2.48248e-05 -4.76782e-07 -4.10752e-07 2.48249e-05 4.10868e-07 1.99366e-05)
(2.2702e-05 -3.16768e-07 -3.0545e-07 2.27711e-05 4.19652e-07 1.82003e-05)
(2.15956e-05 -1.8324e-07 -1.84837e-07 2.16494e-05 4.27043e-07 1.72747e-05)
(2.10669e-05 -6.01329e-08 -6.17636e-08 2.11072e-05 4.31127e-07 1.68287e-05)
(2.10672e-05 5.99731e-08 6.17586e-08 2.11074e-05 4.31123e-07 1.68289e-05)
(2.15965e-05 1.83103e-07 1.84839e-07 2.16502e-05 4.27028e-07 1.72754e-05)
(2.27038e-05 3.16663e-07 3.05478e-07 2.27726e-05 4.19627e-07 1.82016e-05)
(2.48269e-05 4.76673e-07 4.1083e-07 2.48266e-05 4.10834e-07 1.99381e-05)
(2.48266e-05 6.89147e-07 5.25294e-07 2.61809e-05 4.14512e-07 2.06803e-05)
(2.65456e-05 1.49276e-06 -5.90961e-07 2.65465e-05 5.91099e-07 2.19758e-05)
(2.61857e-05 -6.89635e-07 -4.14582e-07 2.48309e-05 5.25474e-07 2.06833e-05)
(2.36471e-05 -4.1613e-07 -2.9205e-07 2.31931e-05 5.41262e-07 1.88067e-05)
(2.31068e-05 -2.5793e-07 -1.7425e-07 2.29538e-05 5.43763e-07 1.8439e-05)
(2.28333e-05 -8.9964e-08 -5.80568e-08 2.28213e-05 5.44258e-07 1.8253e-05)
(2.28335e-05 8.98539e-08 5.80422e-08 2.28215e-05 5.44255e-07 1.82532e-05)
(2.31077e-05 2.57832e-07 1.74241e-07 2.29546e-05 5.43756e-07 1.84396e-05)
(2.36485e-05 4.1602e-07 2.92059e-07 2.31941e-05 5.41245e-07 1.88077e-05)
(2.61869e-05 6.89371e-07 4.14643e-07 2.48315e-05 5.25445e-07 2.0684e-05)
(2.65482e-05 -1.49312e-06 5.91059e-07 2.65477e-05 5.91032e-07 2.19776e-05)
(3.66224e-05 -1.2929e-06 1.1619e-06 3.66171e-05 1.16204e-06 3.02744e-05)
(3.64108e-05 6.78987e-07 8.2495e-07 3.4692e-05 1.09007e-06 2.9072e-05)
(3.35726e-05 1.83561e-07 5.91445e-07 3.30551e-05 9.97669e-07 2.6921e-05)
(3.30068e-05 1.71467e-07 3.55169e-07 3.27148e-05 9.5977e-07 2.6465e-05)
(3.26949e-05 6.2474e-08 1.17775e-07 3.25099e-05 9.37151e-07 2.6209e-05)
(3.26954e-05 -6.35373e-08 -1.19841e-07 3.25107e-05 9.37189e-07 2.62097e-05)
(3.30069e-05 -1.72624e-07 -3.57432e-07 3.27162e-05 9.59908e-07 2.64661e-05)
(3.36188e-05 -1.87224e-07 -5.9554e-07 3.30927e-05 9.98274e-07 2.69556e-05)
(3.6462e-05 -6.83363e-07 -8.31695e-07 3.47446e-05 1.0923e-06 2.91137e-05)
(3.65533e-05 1.29712e-06 -1.16234e-06 3.65541e-05 1.1622e-06 3.02276e-05)
(3.47092e-05 6.81166e-07 1.09124e-06 3.64256e-05 8.25586e-07 2.90822e-05)
(3.38371e-05 3.58934e-07 7.92723e-07 3.38355e-05 7.92578e-07 2.72971e-05)
(3.25057e-05 1.5597e-07 5.45726e-07 3.25417e-05 7.5106e-07 2.61184e-05)
(3.20146e-05 7.19261e-08 3.25069e-07 3.1914e-05 7.21747e-07 2.56031e-05)
(3.16709e-05 2.14596e-08 1.07064e-07 3.15287e-05 7.06049e-07 2.52796e-05)
(3.1671e-05 -2.26832e-08 -1.0908e-07 3.15292e-05 7.06161e-07 2.528e-05)
(3.20181e-05 -7.30349e-08 -3.27345e-07 3.19188e-05 7.22192e-07 2.56064e-05)
(3.2553e-05 -1.56578e-07 -5.49733e-07 3.25904e-05 7.53557e-07 2.61513e-05)
(3.38806e-05 -3.69862e-07 -7.95761e-07 3.38813e-05 7.95483e-07 2.73361e-05)
(3.47279e-05 -6.82758e-07 -1.09144e-06 3.64451e-05 8.30634e-07 2.91028e-05)
(3.30554e-05 1.85085e-07 9.97832e-07 3.35719e-05 5.91517e-07 2.69206e-05)
(3.25818e-05 1.57045e-07 7.52888e-07 3.25439e-05 5.46874e-07 2.61434e-05)
(3.14025e-05 1.35287e-07 5.18105e-07 3.14016e-05 5.17979e-07 2.51236e-05)
(3.09674e-05 7.76599e-08 3.06736e-07 3.08948e-05 4.96158e-07 2.46929e-05)
(3.07266e-05 2.43799e-08 1.01061e-07 3.06332e-05 4.85489e-07 2.44644e-05)
(3.07276e-05 -2.53106e-08 -1.02724e-07 3.06347e-05 4.85689e-07 2.44655e-05)
(3.09764e-05 -7.82716e-08 -3.08545e-07 3.09046e-05 4.96936e-07 2.46998e-05)
(3.14098e-05 -1.35045e-07 -5.19725e-07 3.14098e-05 5.1924e-07 2.51304e-05)
(3.25484e-05 -1.56193e-07 -7.5213e-07 3.25117e-05 5.47979e-07 2.61243e-05)
(3.30882e-05 -1.87013e-07 -9.98238e-07 3.36151e-05 5.94897e-07 2.69527e-05)
(3.27132e-05 1.72433e-07 9.59674e-07 3.30052e-05 3.55272e-07 2.64638e-05)
(3.19156e-05 7.26976e-08 7.21883e-07 3.20152e-05 3.25109e-07 2.56036e-05)
(3.09001e-05 7.80053e-08 4.96406e-07 3.09715e-05 3.06761e-07 2.46957e-05)
(3.03859e-05 5.05594e-08 2.92299e-07 3.03853e-05 2.92207e-07 2.42054e-05)
(3.01194e-05 1.62928e-08 9.61877e-08 3.0088e-05 2.84542e-07 2.39569e-05)
(3.01234e-05 -1.68553e-08 -9.74185e-08 3.00922e-05 2.84795e-07 2.39597e-05)
(3.03891e-05 -5.08992e-08 -2.93481e-07 3.03889e-05 2.92831e-07 2.42083e-05)
(3.08999e-05 -7.81746e-08 -4.97274e-07 3.09715e-05 3.07771e-07 2.46969e-05)
(3.19161e-05 -7.29558e-08 -7.22393e-07 3.2016e-05 3.26575e-07 2.56048e-05)
(3.27151e-05 -1.72412e-07 -9.60021e-07 3.30069e-05 3.56663e-07 2.64656e-05)
(3.25081e-05 6.31698e-08 9.36953e-07 3.26936e-05 1.17912e-07 2.62077e-05)
(3.15276e-05 2.20525e-08 7.0601e-07 3.16695e-05 1.07113e-07 2.52786e-05)
(3.06334e-05 2.47425e-08 4.85542e-07 3.0726e-05 1.01041e-07 2.44642e-05)
(3.00914e-05 1.64447e-08 2.84668e-07 3.01219e-05 9.61422e-08 2.39588e-05)
(2.98362e-05 5.24943e-09 9.36817e-08 2.98358e-05 9.36079e-08 2.37186e-05)
(2.98369e-05 -5.68738e-09 -9.45206e-08 2.98365e-05 9.37696e-08 2.37192e-05)
(3.009e-05 -1.6791e-08 -2.85415e-07 3.01207e-05 9.6609e-08 2.39584e-05)
(3.06357e-05 -2.51177e-08 -4.86225e-07 3.07283e-05 1.01835e-07 2.44663e-05)
(3.15299e-05 -2.24438e-08 -7.06499e-07 3.16721e-05 1.08103e-07 2.52808e-05)
(3.25109e-05 -6.32074e-08 -9.37325e-07 3.2697e-05 1.18838e-07 2.62104e-05)
(3.25088e-05 -6.3042e-08 9.36945e-07 3.2694e-05 -1.19697e-07 2.62083e-05)
(3.15282e-05 -2.22207e-08 7.06046e-07 3.167e-05 -1.09007e-07 2.52792e-05)
(3.0634e-05 -2.49766e-08 4.85665e-07 3.07266e-05 -1.02717e-07 2.44648e-05)
(3.00892e-05 -1.66707e-08 2.84783e-07 3.01199e-05 -9.74399e-08 2.39577e-05)
(2.98369e-05 -5.61834e-09 9.38338e-08 2.98365e-05 -9.45821e-08 2.37192e-05)
(2.98372e-05 5.21168e-09 -9.43999e-08 2.98369e-05 -9.44663e-08 2.37195e-05)
(3.00903e-05 1.62984e-08 -2.85328e-07 3.0121e-05 -9.70976e-08 2.39586e-05)
(3.0636e-05 2.46639e-08 -4.86167e-07 3.07285e-05 -1.02178e-07 2.44665e-05)
(3.15303e-05 2.20617e-08 -7.06467e-07 3.16724e-05 -1.08354e-07 2.5281e-05)
(3.25112e-05 6.30476e-08 -9.37308e-07 3.26972e-05 -1.19049e-07 2.62106e-05)
(3.27143e-05 -1.72207e-07 9.59609e-07 3.30056e-05 -3.57303e-07 2.64646e-05)
(3.19153e-05 -7.26731e-08 7.21928e-07 3.20147e-05 -3.27229e-07 2.5604e-05)
(3.08989e-05 -7.7992e-08 4.96718e-07 3.09705e-05 -3.08434e-07 2.46961e-05)
(3.0389e-05 -5.07337e-08 2.92839e-07 3.03887e-05 -2.93503e-07 2.42082e-05)
(3.01243e-05 -1.6729e-08 9.66758e-08 3.00931e-05 -2.85516e-07 2.39605e-05)
(3.01246e-05 1.63275e-08 -9.70561e-08 3.00933e-05 -2.85439e-07 2.39607e-05)
(3.03899e-05 5.0388e-08 -2.9322e-07 3.03896e-05 -2.93276e-07 2.4209e-05)
(3.09007e-05 7.77252e-08 -4.97102e-07 3.09721e-05 -3.08084e-07 2.46974e-05)
(3.19172e-05 7.26018e-08 -7.223e-07 3.20167e-05 -3.26804e-07 2.56056e-05)
(3.27158e-05 1.72271e-07 -9.59972e-07 3.30076e-05 -3.56856e-07 2.64662e-05)
(3.30886e-05 -1.86903e-07 9.97811e-07 3.36153e-05 -5.95363e-07 2.69528e-05)
(3.25485e-05 -1.55976e-07 7.51646e-07 3.25115e-05 -5.48438e-07 2.61242e-05)
(3.14093e-05 -1.34881e-07 5.19138e-07 3.14093e-05 -5.19709e-07 2.513e-05)
(3.09768e-05 -7.8119e-08 3.07851e-07 3.09048e-05 -4.97433e-07 2.47001e-05)
(3.07288e-05 -2.50637e-08 1.01869e-07 3.06357e-05 -4.86254e-07 2.44664e-05)
(3.07291e-05 2.468e-08 -1.02127e-07 3.06359e-05 -4.86204e-07 2.44666e-05)
(3.09777e-05 7.77579e-08 -3.08125e-07 3.09056e-05 -4.97291e-07 2.47007e-05)
(3.14111e-05 1.34626e-07 -5.19448e-07 3.14107e-05 -5.19489e-07 2.51313e-05)
(3.25502e-05 1.55893e-07 -7.51976e-07 3.2513e-05 -5.48163e-07 2.61255e-05)
(3.30894e-05 1.86918e-07 -9.98151e-07 3.36162e-05 -5.95044e-07 2.69535e-05)
(3.47265e-05 -6.82467e-07 1.09099e-06 3.64432e-05 -8.30893e-07 2.91012e-05)
(3.38802e-05 -3.69793e-07 7.95263e-07 3.388e-05 -7.95729e-07 2.73353e-05)
(3.25519e-05 -1.56539e-07 5.49112e-07 3.25887e-05 -7.53813e-07 2.61501e-05)
(3.20183e-05 -7.29595e-08 3.26594e-07 3.19182e-05 -7.22478e-07 2.56063e-05)
(3.16723e-05 -2.24302e-08 1.08128e-07 3.15297e-05 -7.06493e-07 2.52808e-05)
(3.16726e-05 2.20658e-08 -1.0831e-07 3.15299e-05 -7.06464e-07 2.52809e-05)
(3.20193e-05 7.25933e-08 -3.26801e-07 3.1919e-05 -7.22394e-07 2.56069e-05)
(3.25538e-05 1.56208e-07 -5.49366e-07 3.25902e-05 -7.53686e-07 2.61515e-05)
(3.38818e-05 3.69553e-07 -7.95543e-07 3.38813e-05 -7.95565e-07 2.73365e-05)
(3.4727e-05 6.82466e-07 -1.09128e-06 3.64434e-05 -8.30676e-07 2.91015e-05)
(3.65517e-05 1.29736e-06 1.16191e-06 3.6552e-05 -1.16227e-06 3.02262e-05)
(3.64613e-05 -6.83424e-07 8.31172e-07 3.47427e-05 -1.09237e-06 2.91128e-05)
(3.3617e-05 -1.87108e-07 5.94872e-07 3.30897e-05 -9.98336e-07 2.69537e-05)
(3.3007e-05 -1.7247e-07 3.56642e-07 3.27146e-05 -9.59987e-07 2.64654e-05)
(3.26972e-05 -6.32596e-08 1.18865e-07 3.25107e-05 -9.3729e-07 2.62104e-05)
(3.26974e-05 6.29998e-08 -1.19001e-07 3.2511e-05 -9.37274e-07 2.62106e-05)
(3.30078e-05 1.72199e-07 -3.56807e-07 3.27155e-05 -9.59936e-07 2.64661e-05)
(3.3619e-05 1.86798e-07 -5.95097e-07 3.30915e-05 -9.98255e-07 2.69552e-05)
(3.6463e-05 6.82931e-07 -8.31415e-07 3.4744e-05 -1.09227e-06 2.91139e-05)
(3.65539e-05 -1.2976e-06 -1.16211e-06 3.65529e-05 -1.16214e-06 3.02275e-05)
(3.34406e-05 -3.38661e-07 1.54427e-06 3.34334e-05 1.54377e-06 2.81754e-05)
(3.17796e-05 3.88799e-07 1.1061e-06 3.08665e-05 1.42693e-06 2.60856e-05)
(3.01191e-05 -1.00846e-08 7.96199e-07 3.0039e-05 1.38097e-06 2.47684e-05)
(2.9335e-05 8.97935e-08 4.79048e-07 2.93348e-05 1.36391e-06 2.40419e-05)
(2.89624e-05 2.36608e-08 1.59929e-07 2.90235e-05 1.34675e-06 2.36939e-05)
(2.89655e-05 -2.43319e-08 -1.62711e-07 2.90261e-05 1.34689e-06 2.36964e-05)
(2.93335e-05 -9.01962e-08 -4.81733e-07 2.93353e-05 1.36434e-06 2.40427e-05)
(3.01394e-05 9.4925e-09 -8.00292e-07 3.00567e-05 1.38227e-06 2.47849e-05)
(3.18512e-05 -3.93734e-07 -1.11456e-06 3.09417e-05 1.43111e-06 2.61463e-05)
(3.34588e-05 3.32765e-07 -1.54588e-06 3.34597e-05 1.5454e-06 2.81941e-05)
(3.08877e-05 3.91366e-07 1.42967e-06 3.17989e-05 1.10715e-06 2.60999e-05)
(2.94216e-05 1.77757e-07 1.08919e-06 2.94205e-05 1.08857e-06 2.41955e-05)
(2.88923e-05 2.4943e-08 7.88891e-07 2.89706e-05 1.07338e-06 2.35916e-05)
(2.85553e-05 5.06226e-09 4.7724e-07 2.85252e-05 1.06746e-06 2.31497e-05)
(2.82741e-05 -1.37248e-09 1.58268e-07 2.82431e-05 1.06284e-06 2.28613e-05)
(2.82758e-05 6.06135e-10 -1.60828e-07 2.8245e-05 1.06304e-06 2.2863e-05)
(2.85638e-05 -6.23325e-09 -4.79917e-07 2.85347e-05 1.06837e-06 2.31571e-05)
(2.89503e-05 -2.31917e-08 -7.94252e-07 2.90306e-05 1.07803e-06 2.3633e-05)
(2.94431e-05 -1.79568e-07 -1.09211e-06 2.94432e-05 1.09129e-06 2.42159e-05)
(3.09159e-05 -3.92903e-07 -1.42963e-06 3.18249e-05 1.11221e-06 2.61278e-05)
(3.0044e-05 -9.36378e-09 1.38183e-06 3.01235e-05 7.96357e-07 2.47719e-05)
(2.90253e-05 2.5512e-08 1.07758e-06 2.89453e-05 7.91234e-07 2.36275e-05)
(2.82e-05 5.00991e-08 7.77968e-07 2.81993e-05 7.77531e-07 2.2822e-05)
(2.78223e-05 2.81463e-08 4.71633e-07 2.77799e-05 7.66011e-07 2.23831e-05)
(2.75627e-05 9.4157e-09 1.56904e-07 2.75328e-05 7.61445e-07 2.2119e-05)
(2.75649e-05 -9.54972e-09 -1.58988e-07 2.75352e-05 7.61717e-07 2.2121e-05)
(2.78357e-05 -2.82729e-08 -4.7388e-07 2.77938e-05 7.67114e-07 2.23935e-05)
(2.8212e-05 -4.94468e-08 -7.79847e-07 2.82114e-05 7.78773e-07 2.28325e-05)
(2.8976e-05 -2.31551e-08 -1.07518e-06 2.88953e-05 7.90464e-07 2.35966e-05)
(3.00481e-05 9.76845e-09 -1.38226e-06 3.01307e-05 7.98913e-07 2.47786e-05)
(2.93362e-05 9.00328e-08 1.36413e-06 2.93365e-05 4.79158e-07 2.40433e-05)
(2.8531e-05 5.36385e-09 1.06813e-06 2.85605e-05 4.77266e-07 2.31536e-05)
(2.77885e-05 2.82551e-08 7.66758e-07 2.78299e-05 4.71599e-07 2.23885e-05)
(2.73807e-05 1.37039e-08 4.6375e-07 2.73803e-05 4.63449e-07 2.19276e-05)
(2.7117e-05 4.10142e-09 1.54402e-07 2.71123e-05 4.59177e-07 2.16574e-05)
(2.71222e-05 -3.88896e-09 -1.56062e-07 2.71177e-05 4.5952e-07 2.16611e-05)
(2.73844e-05 -1.34718e-08 -4.65314e-07 2.7384e-05 4.64077e-07 2.19311e-05)
(2.77879e-05 -2.82689e-08 -7.67831e-07 2.78289e-05 4.72391e-07 2.23897e-05)
(2.85309e-05 -6.31501e-09 -1.0689e-06 2.85597e-05 4.78467e-07 2.31548e-05)
(2.93336e-05 -9.01338e-08 -1.36479e-06 2.93323e-05 4.80383e-07 2.40416e-05)
(2.90239e-05 2.38457e-08 1.34677e-06 2.8963e-05 1.60075e-07 2.36943e-05)
(2.82444e-05 -1.21985e-09 1.06305e-06 2.8275e-05 1.58259e-07 2.28623e-05)
(2.75349e-05 9.46595e-09 7.61757e-07 2.75641e-05 1.56769e-07 2.21204e-05)
(2.71175e-05 4.10864e-09 4.59579e-07 2.71215e-05 1.54233e-07 2.16606e-05)
(2.68981e-05 1.09611e-09 1.53332e-07 2.68978e-05 1.53103e-07 2.14232e-05)
(2.68986e-05 -8.92359e-10 -1.54583e-07 2.68983e-05 1.53273e-07 2.14238e-05)
(2.71148e-05 -3.93796e-09 -4.60653e-07 2.71186e-05 1.54683e-07 2.16594e-05)
(2.75373e-05 -9.54617e-09 -7.62845e-07 2.75661e-05 1.57558e-07 2.21227e-05)
(2.82473e-05 6.68963e-10 -1.06394e-06 2.82778e-05 1.59292e-07 2.28651e-05)
(2.90271e-05 -2.4158e-08 -1.34741e-06 2.89673e-05 1.61124e-07 2.36978e-05)
(2.90258e-05 -2.42411e-08 1.34679e-06 2.89654e-05 -1.62577e-07 2.36962e-05)
(2.8246e-05 6.71527e-10 1.06311e-06 2.82765e-05 -1.60808e-07 2.28637e-05)
(2.7536e-05 -9.52673e-09 7.61873e-07 2.75652e-05 -1.59069e-07 2.21215e-05)
(2.71147e-05 -3.89258e-09 4.59613e-07 2.71187e-05 -1.56173e-07 2.16592e-05)
(2.6899e-05 -9.00443e-10 1.53488e-07 2.68989e-05 -1.54767e-07 2.14242e-05)
(2.68992e-05 1.00723e-09 -1.54443e-07 2.6899e-05 -1.54632e-07 2.14243e-05)
(2.71152e-05 3.96797e-09 -4.60541e-07 2.71191e-05 -1.55774e-07 2.16598e-05)
(2.75376e-05 9.48494e-09 -7.62759e-07 2.75664e-05 -1.5844e-07 2.2123e-05)
(2.82476e-05 -8.4842e-10 -1.06389e-06 2.82781e-05 -1.60023e-07 2.28654e-05)
(2.90275e-05 2.40936e-08 -1.3474e-06 2.89677e-05 -1.61774e-07 2.36981e-05)
(2.93343e-05 -9.01643e-08 1.36415e-06 2.93328e-05 -4.81642e-07 2.40419e-05)
(2.8531e-05 -6.21892e-09 1.06806e-06 2.85598e-05 -4.79777e-07 2.31547e-05)
(2.77878e-05 -2.82526e-08 7.66857e-07 2.78292e-05 -4.73732e-07 2.23897e-05)
(2.73854e-05 -1.34863e-08 4.64255e-07 2.73853e-05 -4.65442e-07 2.1932e-05)
(2.71242e-05 -3.9725e-09 1.54926e-07 2.712e-05 -4.60946e-07 2.1663e-05)
(2.71242e-05 3.95147e-09 -1.5564e-07 2.712e-05 -4.60835e-07 2.1663e-05)
(2.73855e-05 1.3466e-08 -4.64968e-07 2.73853e-05 -4.6512e-07 2.19321e-05)
(2.77884e-05 2.81793e-08 -7.67582e-07 2.78296e-05 -4.73231e-07 2.23903e-05)
(2.85317e-05 6.1489e-09 -1.06876e-06 2.85605e-05 -4.79168e-07 2.31555e-05)
(2.93347e-05 9.00977e-08 -1.36474e-06 2.93336e-05 -4.81015e-07 2.40427e-05)
(3.00509e-05 9.64288e-09 1.38162e-06 3.01337e-05 -8.00051e-07 2.47808e-05)
(2.89773e-05 -2.30792e-08 1.07431e-06 2.8897e-05 -7.91617e-07 2.35978e-05)
(2.82129e-05 -4.94672e-08 7.78845e-07 2.8213e-05 -7.79953e-07 2.28335e-05)
(2.78376e-05 -2.83337e-08 4.72778e-07 2.77961e-05 -7.68319e-07 2.23954e-05)
(2.75678e-05 -9.58645e-09 1.57755e-07 2.75385e-05 -7.62992e-07 2.21238e-05)
(2.75676e-05 9.43844e-09 -1.58265e-07 2.75384e-05 -7.62899e-07 2.21237e-05)
(2.78373e-05 2.81718e-08 -4.73311e-07 2.77957e-05 -7.6805e-07 2.23951e-05)
(2.8213e-05 4.93369e-08 -7.79434e-07 2.82128e-05 -7.79532e-07 2.28336e-05)
(2.89774e-05 2.30614e-08 -1.07494e-06 2.88968e-05 -7.911e-07 2.35979e-05)
(3.00501e-05 -9.58963e-09 -1.38219e-06 3.0133e-05 -7.99486e-07 2.47804e-05)
(3.09187e-05 -3.92809e-07 1.42897e-06 3.18277e-05 -1.11317e-06 2.613e-05)
(2.94445e-05 -1.7963e-07 1.09124e-06 2.94446e-05 -1.09224e-06 2.4217e-05)
(2.8951e-05 -2.33456e-08 7.93242e-07 2.90317e-05 -1.07898e-06 2.36339e-05)
(2.85658e-05 -6.37953e-09 4.78783e-07 2.85367e-05 -1.06932e-06 2.31589e-05)
(2.8279e-05 6.1836e-10 1.59497e-07 2.82481e-05 -1.06403e-06 2.28659e-05)
(2.82787e-05 -9.03957e-10 -1.59829e-07 2.82478e-05 -1.06395e-06 2.28657e-05)
(2.85652e-05 6.074e-09 -4.79145e-07 2.8536e-05 -1.06909e-06 2.31584e-05)
(2.89509e-05 2.304e-08 -7.93692e-07 2.90312e-05 -1.07861e-06 2.36337e-05)
(2.94444e-05 1.79456e-07 -1.09176e-06 2.94439e-05 -1.09178e-06 2.42168e-05)
(3.09174e-05 3.93065e-07 -1.42946e-06 3.18258e-05 -1.11263e-06 2.61289e-05)
(3.3457e-05 3.33601e-07 1.54515e-06 3.34566e-05 -1.54595e-06 2.81922e-05)
(3.18488e-05 -3.93616e-07 1.11367e-06 3.09382e-05 -1.43166e-06 2.6144e-05)
(3.01371e-05 9.59578e-09 7.99281e-07 3.00535e-05 -1.3828e-06 2.47828e-05)
(2.93338e-05 -9.02169e-08 4.80602e-07 2.93344e-05 -1.36488e-06 2.40426e-05)
(2.89681e-05 -2.42628e-08 1.61365e-07 2.90274e-05 -1.34746e-06 2.36983e-05)
(2.89679e-05 2.39803e-08 -1.61537e-07 2.90273e-05 -1.34739e-06 2.36981e-05)
(2.93334e-05 8.99488e-08 -4.80808e-07 2.93344e-05 -1.3647e-06 2.40423e-05)
(3.01378e-05 -9.87547e-09 -7.9959e-07 3.00546e-05 -1.3825e-06 2.47834e-05)
(3.18503e-05 3.93241e-07 -1.11409e-06 3.09395e-05 -1.43129e-06 2.6145e-05)
(3.3458e-05 -3.33234e-07 -1.54556e-06 3.34568e-05 -1.54552e-06 2.81926e-05)
(2.51625e-05 5.84642e-08 1.37419e-06 2.51592e-05 1.37303e-06 2.17846e-05)
(2.26614e-05 7.96567e-08 9.93512e-07 2.23688e-05 1.27463e-06 1.91667e-05)
(2.19889e-05 -1.08419e-07 7.12451e-07 2.20837e-05 1.27638e-06 1.85276e-05)
(2.11789e-05 2.50094e-08 4.27609e-07 2.12906e-05 1.27233e-06 1.77386e-05)
(2.08757e-05 -1.13603e-08 1.43222e-07 2.10357e-05 1.26221e-06 1.74349e-05)
(2.08816e-05 1.2143e-08 -1.45832e-07 2.10402e-05 1.26237e-06 1.74393e-05)
(2.11829e-05 -2.4081e-08 -4.30311e-07 2.12948e-05 1.27286e-06 1.77431e-05)
(2.20018e-05 1.1145e-07 -7.16357e-07 2.20937e-05 1.27786e-06 1.85391e-05)
(2.27004e-05 -7.75323e-08 -1.00072e-06 2.241e-05 1.27868e-06 1.92024e-05)
(2.51757e-05 -6.26107e-08 -1.37588e-06 2.5176e-05 1.37529e-06 2.18004e-05)
(2.23851e-05 8.04503e-08 1.27795e-06 2.26794e-05 9.94677e-07 1.91799e-05)
(2.09447e-05 3.44401e-08 9.91294e-07 2.09452e-05 9.9044e-07 1.75866e-05)
(2.07512e-05 -3.90731e-08 7.27033e-07 2.08227e-05 9.93909e-07 1.72243e-05)
(2.03661e-05 -1.55823e-08 4.38493e-07 2.03841e-05 9.99496e-07 1.67496e-05)
(2.01457e-05 -1.04021e-08 1.45582e-07 2.01899e-05 9.99809e-07 1.65099e-05)
(2.01489e-05 1.1036e-08 -1.47914e-07 2.01926e-05 1.00004e-06 1.65126e-05)
(2.03796e-05 1.50201e-08 -4.41141e-07 2.03966e-05 1.00068e-06 1.67605e-05)
(2.0809e-05 4.10423e-08 -7.32865e-07 2.088e-05 9.99464e-07 1.7267e-05)
(2.09549e-05 -3.29079e-08 -9.93894e-07 2.09538e-05 9.92973e-07 1.75981e-05)
(2.23843e-05 -7.68237e-08 -1.27705e-06 2.26734e-05 9.98059e-07 1.91829e-05)
(2.20938e-05 -1.09508e-07 1.27767e-06 2.19993e-05 7.12766e-07 1.85358e-05)
(2.08744e-05 -3.96087e-08 9.98936e-07 2.0803e-05 7.29785e-07 1.72603e-05)
(2.02177e-05 -8.04396e-09 7.25344e-07 2.02178e-05 7.24836e-07 1.65487e-05)
(1.97564e-05 9.38636e-11 4.3786e-07 1.97478e-05 7.19844e-07 1.60362e-05)
(1.94684e-05 1.55772e-09 1.45329e-07 1.94917e-05 7.17901e-07 1.57468e-05)
(1.94711e-05 -6.39767e-10 -1.47159e-07 1.94942e-05 7.1818e-07 1.57491e-05)
(1.97698e-05 3.37095e-10 -4.39975e-07 1.97606e-05 7.2104e-07 1.60466e-05)
(2.02325e-05 8.14428e-09 -7.27241e-07 2.02315e-05 7.26155e-07 1.65615e-05)
(2.08324e-05 4.0704e-08 -9.96082e-07 2.07595e-05 7.28608e-07 1.72339e-05)
(2.20859e-05 1.11563e-07 -1.27783e-06 2.19926e-05 7.14898e-07 1.85329e-05)
(2.12948e-05 2.43382e-08 1.27286e-06 2.11829e-05 4.27655e-07 1.77422e-05)
(2.03926e-05 -1.6115e-08 1.00051e-06 2.03745e-05 4.38534e-07 1.67561e-05)
(1.97564e-05 -1.90359e-10 7.20764e-07 1.9765e-05 4.37842e-07 1.60422e-05)
(1.93362e-05 -6.14577e-09 4.34892e-07 1.93362e-05 4.34563e-07 1.55608e-05)
(1.90553e-05 -1.44714e-09 1.44366e-07 1.90712e-05 4.32793e-07 1.52727e-05)
(1.90599e-05 2.23833e-09 -1.45828e-07 1.90756e-05 4.33129e-07 1.5276e-05)
(1.93391e-05 6.68726e-09 -4.36285e-07 1.93386e-05 4.35111e-07 1.55635e-05)
(1.97558e-05 2.26424e-10 -7.21686e-07 1.97636e-05 4.38506e-07 1.60434e-05)
(2.03941e-05 1.47114e-08 -1.00119e-06 2.03754e-05 4.39714e-07 1.67588e-05)
(2.12948e-05 -2.43814e-08 -1.27349e-06 2.11821e-05 4.29087e-07 1.77432e-05)
(2.10384e-05 -1.18325e-08 1.26257e-06 2.08778e-05 1.43268e-07 1.74372e-05)
(2.01929e-05 -1.0827e-08 1.00026e-06 2.01482e-05 1.45508e-07 1.65123e-05)
(1.94946e-05 1.21918e-09 7.18344e-07 1.94709e-05 1.45161e-07 1.5749e-05)
(1.90758e-05 -1.58824e-09 4.33259e-07 1.90598e-05 1.44191e-07 1.52759e-05)
(1.88381e-05 -2.24344e-10 1.4431e-07 1.88381e-05 1.44073e-07 1.50196e-05)
(1.88386e-05 8.67791e-10 -1.45421e-07 1.88384e-05 1.4421e-07 1.502e-05)
(1.90732e-05 2.12084e-09 -4.34169e-07 1.9057e-05 1.44543e-07 1.52747e-05)
(1.94968e-05 -8.97028e-10 -7.19301e-07 1.94727e-05 1.45841e-07 1.57513e-05)
(2.01963e-05 1.06797e-08 -1.00105e-06 2.01515e-05 1.46498e-07 1.65157e-05)
(2.1043e-05 1.17344e-08 -1.2631e-06 2.08837e-05 1.44397e-07 1.74418e-05)
(2.10422e-05 1.18241e-08 1.26263e-06 2.08828e-05 -1.45791e-07 1.74409e-05)
(2.01949e-05 1.07341e-08 1.00035e-06 2.01503e-05 -1.47956e-07 1.65143e-05)
(1.94954e-05 -8.93303e-10 7.18458e-07 1.94717e-05 -1.47272e-07 1.57501e-05)
(1.90731e-05 2.09854e-09 4.33257e-07 1.90571e-05 -1.45943e-07 1.52745e-05)
(1.8839e-05 8.30716e-10 1.44439e-07 1.88389e-05 -1.45604e-07 1.50204e-05)
(1.88391e-05 -2.2011e-10 -1.45312e-07 1.8839e-05 -1.45496e-07 1.50206e-05)
(1.90735e-05 -1.55845e-09 -4.34082e-07 1.90574e-05 -1.4562e-07 1.52751e-05)
(1.94969e-05 1.26903e-09 -7.19231e-07 1.94729e-05 -1.46747e-07 1.57515e-05)
(2.01962e-05 -1.06253e-08 -1.00099e-06 2.01515e-05 -1.47261e-07 1.65157e-05)
(2.10433e-05 -1.18149e-08 -1.26308e-06 2.08841e-05 -1.45046e-07 1.74421e-05)
(2.12958e-05 -2.42548e-08 1.27302e-06 2.11829e-05 -4.30259e-07 1.77437e-05)
(2.03933e-05 1.48235e-08 1.00047e-06 2.03751e-05 -4.40966e-07 1.67583e-05)
(1.97555e-05 2.15046e-10 7.20852e-07 1.97639e-05 -4.39795e-07 1.60433e-05)
(1.934e-05 6.6409e-09 4.35366e-07 1.93398e-05 -4.36419e-07 1.55644e-05)
(1.9062e-05 2.11695e-09 1.44822e-07 1.90779e-05 -4.3449e-07 1.52779e-05)
(1.9062e-05 -1.53165e-09 -1.45499e-07 1.90779e-05 -4.34401e-07 1.5278e-05)
(1.93398e-05 -6.10321e-09 -4.36019e-07 1.93398e-05 -4.36159e-07 1.55645e-05)
(1.97558e-05 1.34248e-10 -7.21477e-07 1.97641e-05 -4.39383e-07 1.60437e-05)
(2.03938e-05 -1.4675e-08 -1.00103e-06 2.03757e-05 -4.40454e-07 1.6759e-05)
(2.12959e-05 2.42946e-08 -1.27342e-06 2.11833e-05 -4.29736e-07 1.77442e-05)
(2.20892e-05 1.11519e-07 1.27735e-06 2.19958e-05 -7.15975e-07 1.85355e-05)
(2.08322e-05 4.09113e-08 9.95334e-07 2.07602e-05 -7.29744e-07 1.72341e-05)
(2.02332e-05 8.19493e-09 7.26385e-07 2.02331e-05 -7.27339e-07 1.65625e-05)
(1.97717e-05 3.02874e-10 4.39026e-07 1.97632e-05 -7.22248e-07 1.60487e-05)
(1.94742e-05 -7.81984e-10 1.4607e-07 1.94979e-05 -7.19453e-07 1.57523e-05)
(1.9474e-05 1.36954e-09 -1.46578e-07 1.94978e-05 -7.19375e-07 1.57522e-05)
(1.97711e-05 2.26658e-10 -4.39525e-07 1.97628e-05 -7.22021e-07 1.60483e-05)
(2.02327e-05 -7.77551e-09 -7.26896e-07 2.02328e-05 -7.26975e-07 1.65623e-05)
(2.08321e-05 -4.0576e-08 -9.95847e-07 2.07603e-05 -7.29307e-07 1.72343e-05)
(2.20876e-05 -1.11295e-07 -1.27774e-06 2.19951e-05 -7.15524e-07 1.85348e-05)
(2.23906e-05 -7.71063e-08 1.27655e-06 2.26798e-05 -9.99046e-07 1.9188e-05)
(2.09555e-05 -3.27871e-08 9.93132e-07 2.09557e-05 -9.9399e-07 1.75992e-05)
(2.08103e-05 4.10714e-08 7.32006e-07 2.08826e-05 -1.0005e-06 1.72688e-05)
(2.03819e-05 1.50045e-08 4.40172e-07 2.03999e-05 -1.00172e-06 1.67632e-05)
(2.01522e-05 1.09488e-08 1.46728e-07 2.01967e-05 -1.00111e-06 1.65161e-05)
(2.01519e-05 -1.03692e-08 -1.47077e-07 2.01965e-05 -1.00104e-06 1.65159e-05)
(2.03808e-05 -1.44546e-08 -4.40515e-07 2.03991e-05 -1.00151e-06 1.67624e-05)
(2.08093e-05 -4.06602e-08 -7.3239e-07 2.08819e-05 -1.00016e-06 1.72681e-05)