/*--------------------------------*- C++ -*----------------------------------*\
| =========                 |                                                 |
| \\      /  F ield         | OpenFOAM: The Open Source CFD Toolbox           |
|  \\    /   O peration     | Version:  2406                                  |
|   \\  /    A nd           | Website:  www.openfoam.com                      |
|    \\/     M anipulation  |                                                 |
\*---------------------------------------------------------------------------*/
FoamFile
{
    version     2.0;
    format      ascii;
    arch        "LSB;label=32;scalar=64";
    class       volVectorField;
    location    "200";
    object      U;
}
// * * * * * * * * * * * * * * * * * * * * * * * * * * * * * * * * * * * * * //

dimensions      [0 1 -1 0 0 0 0];

internalField   nonuniform List<vector> 
25000
(
(0.00532428 0.0053223 1.00324)
(0.00369153 0.00481837 1.003)
(0.00259623 0.00460102 1.00283)
(0.00154196 0.00447349 1.0027)
(0.000509742 0.00440715 1.00264)
(-0.000513316 0.00440727 1.00264)
(-0.00154573 0.00447401 1.0027)
(-0.00260149 0.00460197 1.00283)
(-0.00369993 0.00482091 1.00301)
(-0.00532501 0.00532439 1.00324)
(0.00482105 0.00369008 1.003)
(0.00354069 0.00353871 1.00273)
(0.00247729 0.00342615 1.00254)
(0.00147017 0.00335049 1.00241)
(0.000485868 0.00331241 1.00235)
(-0.000489089 0.00331266 1.00235)
(-0.00147359 0.0033513 1.00242)
(-0.00248113 0.00342774 1.00254)
(-0.00354369 0.00354272 1.00273)
(-0.00482138 0.00369884 1.00301)
(0.00460231 0.00259592 1.00283)
(0.00342788 0.0024762 1.00254)
(0.00239261 0.00239127 1.00234)
(0.00141649 0.00233215 1.00221)
(0.000467994 0.00230252 1.00215)
(-0.000470434 0.00230289 1.00215)
(-0.00141891 0.00233331 1.00221)
(-0.0023947 0.00239352 1.00234)
(-0.00342869 0.0024799 1.00254)
(-0.00460248 0.00260013 1.00283)
(0.00447419 0.00154219 1.0027)
(0.00335167 0.00146967 1.00242)
(0.00233331 0.00141565 1.00221)
(0.00137758 0.00137663 1.00208)
(0.000454902 0.00135682 1.00202)
(-0.000456515 0.00135718 1.00202)
(-0.00137906 0.00137771 1.00208)
(-0.00233449 0.0014175 1.00221)
(-0.00335227 0.00147209 1.00242)
(-0.00447452 0.0015441 1.0027)
(0.00440724 0.000510111 1.00264)
(0.00331318 0.000485741 1.00235)
(0.00230347 0.00046751 1.00215)
(0.00135769 0.000454237 1.00202)
(0.000448226 0.00044751 1.00196)
(-0.000449182 0.000447786 1.00196)
(-0.00135856 0.000455042 1.00202)
(-0.00230415 0.000468778 1.00215)
(-0.0033137 0.000487227 1.00235)
(-0.00440788 0.000511348 1.00264)
(0.00440714 -0.000512909 1.00264)
(0.00331304 -0.000489043 1.00235)
(0.00230355 -0.000470703 1.00215)
(0.00135792 -0.000456981 1.00202)
(0.000448455 -0.000449735 1.00196)
(-0.000448974 -0.000449549 1.00196)
(-0.00135839 -0.000456434 1.00202)
(-0.00230404 -0.000469891 1.00215)
(-0.00331362 -0.000488141 1.00235)
(-0.00440784 -0.00051214 1.00264)
(0.00447357 -0.00154537 1.0027)
(0.00335144 -0.00147351 1.00242)
(0.00233377 -0.00141905 1.00221)
(0.0013783 -0.00137937 1.00208)
(0.000455646 -0.00135896 1.00202)
(-0.000455881 -0.00135884 1.00202)
(-0.00137856 -0.00137902 1.00208)
(-0.00233412 -0.00141855 1.00221)
(-0.00335202 -0.00147294 1.00242)
(-0.0044744 -0.00154486 1.0027)
(0.00460146 -0.00260119 1.00283)
(0.00342769 -0.00248101 1.00254)
(0.00239381 -0.00239475 1.00234)
(0.00141797 -0.00233464 1.00221)
(0.000469305 -0.00230439 1.00215)
(-0.000469366 -0.0023043 1.00215)
(-0.00141809 -0.00233442 1.00221)
(-0.00239411 -0.00239441 1.00234)
(-0.00342829 -0.00248065 1.00254)
(-0.00460228 -0.00260081 1.00283)
(0.00482029 -0.00369976 1.00301)
(0.0035426 -0.00354359 1.00273)
(0.00248011 -0.00342865 1.00254)
(0.00147248 -0.00335228 1.00242)
(0.00048771 -0.00331374 1.00235)
(-0.000487654 -0.00331369 1.00235)
(-0.00147251 -0.00335213 1.00242)
(-0.00248033 -0.00342841 1.00254)
(-0.00354314 -0.00354328 1.00273)
(-0.00482109 -0.00369937 1.00301)
(0.00532389 -0.00532498 1.00324)
(0.00369878 -0.0048213 1.00301)
(0.00260035 -0.00460239 1.00283)
(0.00154449 -0.00447443 1.0027)
(0.000511809 -0.00440778 1.00264)
(-0.000511665 -0.00440774 1.00264)
(-0.00154442 -0.0044743 1.0027)
(-0.00260047 -0.00460218 1.00283)
(-0.00369919 -0.00482102 1.00301)
(-0.00532452 -0.00532449 1.00324)
(0.00710166 0.00709765 1.01896)
(0.00496028 0.00634435 1.01806)
(0.00348411 0.00637757 1.01737)
(0.00207304 0.00634967 1.0169)
(0.000687745 0.00632794 1.01667)
(-0.000691585 0.00632822 1.01667)
(-0.00207646 0.0063507 1.01691)
(-0.00348606 0.00637929 1.01737)
(-0.0049756 0.00635005 1.01807)
(-0.007105 0.00710311 1.01898)
(0.00634814 0.00495807 1.01806)
(0.00485963 0.00485677 1.01702)
(0.00354353 0.00487589 1.01626)
(0.00213231 0.0049105 1.01576)
(0.000709342 0.00493013 1.01551)
(-0.000712335 0.00493049 1.01551)
(-0.00213469 0.00491171 1.01577)
(-0.00354487 0.00487764 1.01627)
(-0.0048609 0.00485833 1.01703)
(-0.00635169 0.00497289 1.01807)
(0.00638011 0.00348328 1.01737)
(0.00487846 0.00354181 1.01627)
(0.00354259 0.0035406 1.01546)
(0.00214048 0.00354114 1.01493)
(0.00071364 0.00354372 1.01467)
(-0.000715798 0.00354404 1.01467)
(-0.00214231 0.00354202 1.01493)
(-0.00354421 0.00354166 1.01547)
(-0.00488017 0.00354228 1.01627)
(-0.006381 0.00348344 1.01738)
(0.00635155 0.0020728 1.01691)
(0.00491252 0.00213134 1.01576)
(0.00354296 0.00213914 1.01493)
(0.00213806 0.0021366 1.01438)
(0.000713345 0.00213583 1.01411)
(-0.000715057 0.00213604 1.01411)
(-0.00213963 0.00213713 1.01439)
(-0.00354459 0.00213977 1.01493)
(-0.00491421 0.00213209 1.01577)
(-0.00635244 0.00207382 1.01691)
(0.00632922 0.000687677 1.01667)
(0.00493173 0.000708794 1.01551)
(0.00354532 0.000712749 1.01467)
(0.0021372 0.000712292 1.01411)
(0.00071328 0.000712179 1.01384)
(-0.000714671 0.000712341 1.01384)
(-0.00213857 0.000712716 1.01412)
(-0.00354668 0.000713377 1.01467)
(-0.00493304 0.000709724 1.01551)
(-0.00633011 0.000688835 1.01668)
(0.00632922 -0.000691566 1.01667)
(0.00493175 -0.000712661 1.01551)
(0.00354539 -0.000716403 1.01467)
(0.0021373 -0.00071583 1.01411)
(0.000713396 -0.000715519 1.01384)
(-0.000714516 -0.00071538 1.01384)
(-0.0021384 -0.000715419 1.01412)
(-0.00354653 -0.00071576 1.01467)
(-0.00493292 -0.000711824 1.01552)
(-0.00633006 -0.000690708 1.01668)
(0.00635137 -0.00207641 1.01691)
(0.00491273 -0.00213493 1.01577)
(0.00354318 -0.00214273 1.01493)
(0.00213826 -0.00214019 1.01439)
(0.000713722 -0.0021392 1.01412)
(-0.00071457 -0.00213905 1.01412)
(-0.00213913 -0.00213979 1.01439)
(-0.00354414 -0.00214211 1.01494)
(-0.00491384 -0.00213417 1.01577)
(-0.00635229 -0.0020757 1.01691)
(0.0063798 -0.00348605 1.01738)
(0.00487848 -0.00354502 1.01627)
(0.00354267 -0.00354452 1.01547)
(0.00214081 -0.00354494 1.01493)
(0.000714342 -0.00354708 1.01467)
(-0.000714927 -0.00354695 1.01467)
(-0.00214145 -0.00354456 1.01494)
(-0.00354346 -0.00354391 1.01547)
(-0.00487957 -0.0035443 1.01627)
(-0.00638078 -0.00348533 1.01738)
(0.0063504 -0.00497568 1.01807)
(0.00485909 -0.00486107 1.01703)
(0.00354325 -0.00488034 1.01627)
(0.00213311 -0.00491437 1.01577)
(0.000710655 -0.0049332 1.01552)
(-0.00071099 -0.00493308 1.01552)
(-0.0021335 -0.00491401 1.01577)
(-0.00354384 -0.00487974 1.01627)
(-0.00486008 -0.00486027 1.01703)
(-0.00635142 -0.00497476 1.01807)
(0.00710337 -0.00710536 1.01898)
(0.00497373 -0.00635191 1.01807)
(0.00348448 -0.00638112 1.01738)
(0.00207484 -0.00635246 1.01691)
(0.000689775 -0.00633008 1.01668)
(-0.000689874 -0.00632998 1.01668)
(-0.00207498 -0.0063522 1.01691)
(-0.00348478 -0.00638063 1.01738)
(-0.00497447 -0.0063512 1.01807)
(-0.00710438 -0.0071042 1.01898)
(0.00528334 0.00527842 1.035)
(0.00373636 0.00470878 1.03389)
(0.00257139 0.00495472 1.03307)
(0.00152167 0.00497523 1.03251)
(0.000502352 0.00499705 1.03223)
(-0.000502853 0.00499718 1.03224)
(-0.00152277 0.00497583 1.03252)
(-0.00256882 0.00495521 1.03307)
(-0.00373991 0.00471018 1.03391)
(-0.00528393 0.00528251 1.03502)
(0.00471173 0.00373446 1.03389)
(0.00367799 0.0036755 1.03266)
(0.002702 0.00376677 1.03173)
(0.00161636 0.00383371 1.0311)
(0.000538552 0.00387215 1.03079)
(-0.000538315 0.00387232 1.03079)
(-0.00161605 0.00383454 1.03111)
(-0.00270086 0.00376842 1.03173)
(-0.00367574 0.00367399 1.03267)
(-0.00471137 0.00373805 1.03391)
(0.00495677 0.00257059 1.03307)
(0.00376893 0.00270052 1.03173)
(0.00274285 0.00274124 1.03073)
(0.00164343 0.00277033 1.03006)
(0.000547074 0.00278508 1.02972)
(-0.000546507 0.00278512 1.02972)
(-0.00164281 0.00277046 1.03006)
(-0.00274262 0.00274136 1.03074)
(-0.00377017 0.00269962 1.03174)
(-0.00495663 0.00256766 1.03307)
(0.00497717 0.00152092 1.03251)
(0.00383561 0.0016153 1.0311)
(0.00277188 0.00164223 1.03006)
(0.00166413 0.00166291 1.02936)
(0.000554133 0.00167416 1.02901)
(-0.000553694 0.00167408 1.02901)
(-0.00166366 0.00166268 1.02936)
(-0.00277174 0.00164183 1.03006)
(-0.00383621 0.00161509 1.03111)
(-0.00497715 0.00152191 1.03252)
(0.00499882 0.0005016 1.03224)
(0.00387394 0.000537656 1.03079)
(0.0027866 0.000546104 1.02972)
(0.00167536 0.000553161 1.02901)
(0.000558308 0.000557325 1.02866)
(-0.000558022 0.000557257 1.02866)
(-0.00167506 0.000552951 1.02901)
(-0.00278638 0.000545805 1.02973)
(-0.00387395 0.000537563 1.0308)
(-0.00499851 0.000502067 1.03224)
(0.00499895 -0.000503612 1.03224)
(0.00387403 -0.000539136 1.03079)
(0.0027866 -0.000547359 1.02972)
(0.0016753 -0.000554547 1.02901)
(0.00055823 -0.000558867 1.02866)
(-0.000558065 -0.000558906 1.02866)
(-0.00167506 -0.000554651 1.02901)
(-0.00278637 -0.000547499 1.02973)
(-0.0038739 -0.000539182 1.0308)
(-0.00499848 -0.000503511 1.03224)
(0.00497757 -0.00152352 1.03252)
(0.00383624 -0.00161682 1.03111)
(0.00277194 -0.00164358 1.03006)
(0.00166389 -0.00166445 1.02936)
(0.000553943 -0.00167581 1.02901)
(-0.000553805 -0.0016758 1.02901)
(-0.0016637 -0.00166443 1.02936)
(-0.00277167 -0.00164354 1.03006)
(-0.00383603 -0.00161671 1.03111)
(-0.00497707 -0.0015234 1.03252)
(0.00495703 -0.00256949 1.03307)
(0.0037701 -0.00270157 1.03174)
(0.00274282 -0.00274335 1.03074)
(0.00164306 -0.00277241 1.03006)
(0.000546821 -0.00278703 1.02973)
(-0.000546632 -0.00278698 1.02973)
(-0.0016428 -0.00277226 1.03006)
(-0.0027425 -0.00274309 1.03074)
(-0.0037699 -0.00270127 1.03174)
(-0.00495653 -0.00256925 1.03308)
(0.00471182 -0.00374056 1.03391)
(0.00367562 -0.00367644 1.03267)
(0.0027011 -0.00377079 1.03174)
(0.00161635 -0.00383677 1.03111)
(0.000538604 -0.00387448 1.0308)
(-0.00053827 -0.00387439 1.0308)
(-0.00161595 -0.00383648 1.03111)
(-0.00270065 -0.0037703 1.03174)
(-0.00367542 -0.00367578 1.03267)
(-0.00471151 -0.0037399 1.03391)
(0.00528398 -0.00528507 1.03502)
(0.00373982 -0.00471232 1.03391)
(0.00256925 -0.00495731 1.03308)
(0.0015232 -0.00497773 1.03252)
(0.000503138 -0.00499901 1.03224)
(-0.000502567 -0.00499889 1.03224)
(-0.00152254 -0.00497739 1.03252)
(-0.00256849 -0.00495671 1.03308)
(-0.00373939 -0.00471142 1.03391)
(-0.00528393 -0.00528372 1.03502)
(0.0035684 0.00356591 1.0458)
(0.00266603 0.00333156 1.04472)
(0.0018092 0.00366193 1.04392)
(0.001079 0.00370306 1.0434)
(0.00035297 0.00376343 1.04313)
(-0.000348358 0.00376303 1.04314)
(-0.00107646 0.00370215 1.0434)
(-0.00180402 0.00365998 1.04393)
(-0.00266388 0.00332685 1.04473)
(-0.00356016 0.00356017 1.04582)
(0.0033312 0.00266572 1.04472)
(0.00267271 0.0026726 1.04353)
(0.00194758 0.00279963 1.04262)
(0.0011629 0.00286007 1.04202)
(0.000390348 0.00290157 1.04172)
(-0.000386018 0.00290127 1.04172)
(-0.00115931 0.00285951 1.04202)
(-0.00194455 0.00280006 1.04263)
(-0.00266926 0.00266985 1.04354)
(-0.00332677 0.00266451 1.04473)
(0.00366226 0.00180843 1.04392)
(0.00279986 0.00194724 1.04262)
(0.00202015 0.00201996 1.04165)
(0.00119605 0.00206157 1.041)
(0.000399302 0.00208035 1.04068)
(-0.000395604 0.00208 1.04068)
(-0.00119272 0.00206067 1.041)
(-0.00201753 0.002019 1.04166)
(-0.00279954 0.00194609 1.04263)
(-0.00366024 0.00180583 1.04393)
(0.00370402 0.00107782 1.0434)
(0.00286066 0.00116216 1.04202)
(0.00206188 0.00119565 1.041)
(0.00122729 0.00122697 1.04032)
(0.000408982 0.00124184 1.03999)
(-0.000405925 0.00124154 1.03999)
(-0.00122432 0.00122618 1.04033)
(-0.00205921 0.00119461 1.04101)
(-0.00285884 0.00116133 1.04203)
(-0.00370206 0.0010788 1.04341)
(0.00376472 0.000351819 1.04314)
(0.00290252 0.000389511 1.04172)
(0.00208093 0.000398761 1.04068)
(0.00124223 0.000408626 1.03999)
(0.000413652 0.000413311 1.03964)
(-0.000411035 0.000413078 1.03964)
(-0.00123965 0.000407975 1.03999)
(-0.00207841 0.000397799 1.04068)
(-0.0029004 0.000388422 1.04173)
(-0.00376266 0.000351057 1.04314)
(0.00376467 -0.000349299 1.04314)
(0.00290244 -0.000386738 1.04172)
(0.00208078 -0.00039611 1.04068)
(0.00124206 -0.000406287 1.03999)
(0.000413432 -0.000411347 1.03964)
(-0.000411254 -0.000411565 1.03964)
(-0.00123982 -0.000406902 1.03999)
(-0.00207855 -0.000397065 1.04068)
(-0.00290043 -0.000387867 1.04173)
(-0.0037626 -0.000350395 1.04314)
(0.00370389 -0.00107708 1.0434)
(0.00286085 -0.00115977 1.04203)
(0.00206158 -0.00119303 1.04101)
(0.00122675 -0.0012246 1.04033)
(0.000408366 -0.00123989 1.03999)
(-0.000406589 -0.00124009 1.03999)
(-0.00122491 -0.0012252 1.04033)
(-0.00205957 -0.00119396 1.04101)
(-0.00285889 -0.00116084 1.04203)
(-0.00370189 -0.00107819 1.04341)
(0.00366183 -0.0018041 1.04393)
(0.00280143 -0.00194459 1.04263)
(0.00201991 -0.00201759 1.04166)
(0.00119518 -0.00205927 1.04101)
(0.000398157 -0.00207856 1.04068)
(-0.000396791 -0.00207876 1.04068)
(-0.00119368 -0.00205986 1.04101)
(-0.00201817 -0.0020185 1.04166)
(-0.00279964 -0.00194574 1.04263)
(-0.00365992 -0.00180545 1.04393)
(0.00332829 -0.00266338 1.04473)
(0.00267104 -0.00266886 1.04354)
(0.00194688 -0.00279917 1.04263)
(0.00116177 -0.00285864 1.04203)
(0.000388647 -0.00290039 1.04173)
(-0.000387694 -0.00290058 1.04173)
(-0.00116069 -0.00285922 1.04203)
(-0.00194547 -0.00280008 1.04263)
(-0.00266956 -0.00266997 1.04354)
(-0.00332687 -0.0026648 1.04473)
(0.0035615 -0.00355996 1.04582)
(0.00266566 -0.00332636 1.04473)
(0.00180641 -0.00365964 1.04393)
(0.00107893 -0.00370173 1.04341)
(0.000351023 -0.00376255 1.04314)
(-0.000350485 -0.00376274 1.04314)
(-0.00107825 -0.00370232 1.04341)
(-0.00180528 -0.00366058 1.04393)
(-0.00266437 -0.00332735 1.04473)
(-0.00356061 -0.00356074 1.04582)
(0.0023604 0.00236267 1.05228)
(0.00193516 0.00234771 1.05124)
(0.00130111 0.00263091 1.0505)
(0.000792365 0.0026651 1.05)
(0.000253753 0.00273936 1.04976)
(-0.000246958 0.00273865 1.04976)
(-0.000787558 0.0026631 1.05001)
(-0.00129404 0.00262773 1.0505)
(-0.00192991 0.00234026 1.05125)
(-0.00234803 0.00234963 1.05229)
(0.00234351 0.00193617 1.05124)
(0.00194935 0.00195166 1.05011)
(0.0014038 0.00206745 1.04925)
(0.000848206 0.00210239 1.04868)
(0.000286701 0.00214003 1.0484)
(-0.000280936 0.00213946 1.0484)
(-0.000842914 0.00210064 1.04868)
(-0.001399 0.00206621 1.04926)
(-0.00194528 0.00194759 1.05012)
(-0.00233871 0.00193235 1.05125)
(0.002629 0.00130005 1.0505)
(0.00206585 0.0014043 1.04925)
(0.0014877 0.00148852 1.04832)
(0.000881724 0.00152728 1.0477)
(0.000297199 0.00154718 1.0474)
(-0.000292823 0.00154664 1.0474)
(-0.000877537 0.00152568 1.04771)
(-0.00148345 0.00148631 1.04833)
(-0.00206392 0.0014019 1.04926)
(-0.00262628 0.00129726 1.0505)
(0.00266388 0.000791135 1.05001)
(0.00210144 0.000847787 1.04868)
(0.00152665 0.0008818 1.0477)
(0.00091179 0.000911964 1.04706)
(0.000306738 0.000925829 1.04673)
(-0.000303169 0.000925495 1.04674)
(-0.000908193 0.000911072 1.04706)
(-0.00152281 0.000880453 1.04771)
(-0.00209815 0.00084595 1.04869)
(-0.00266104 0.00079088 1.05001)
(0.00273864 0.000252608 1.04976)
(0.00213952 0.000286008 1.0484)
(0.00154682 0.000296882 1.0474)
(0.000925721 0.000306605 1.04673)
(0.000310426 0.000310312 1.04641)
(-0.000307274 0.000310101 1.04641)
(-0.00092256 0.000306004 1.04674)
(-0.00154361 0.000295851 1.0474)
(-0.00213679 0.000284305 1.0484)
(-0.0027362 0.000250639 1.04976)
(0.00273836 -0.00024804 1.04976)
(0.00213926 -0.000281693 1.0484)
(0.00154652 -0.000293297 1.0474)
(0.000925502 -0.000303489 1.04674)
(0.000310229 -0.00030755 1.04641)
(-0.00030747 -0.000307738 1.04641)
(-0.000922725 -0.00030404 1.04674)
(-0.00154377 -0.000294232 1.0474)
(-0.00213689 -0.000282986 1.0484)
(-0.00273622 -0.000249431 1.04976)
(0.00266313 -0.000788691 1.05001)
(0.00210072 -0.00084367 1.04869)
(0.00152576 -0.00087805 1.04771)
(0.000911163 -0.000908623 1.04706)
(0.000306171 -0.000922946 1.04674)
(-0.000303763 -0.000923113 1.04674)
(-0.000908752 -0.000909142 1.04706)
(-0.00152326 -0.000878884 1.04771)
(-0.00209844 -0.000844652 1.04869)
(-0.00266115 -0.000789614 1.05001)
(0.00262828 -0.00129501 1.0505)
(0.00206661 -0.00139965 1.04926)
(0.00148652 -0.00148397 1.04833)
(0.000880596 -0.00152328 1.04771)
(0.000296029 -0.00154411 1.0474)
(-0.000293969 -0.00154427 1.0474)
(-0.000878503 -0.00152379 1.04771)
(-0.00148424 -0.0014848 1.04833)
(-0.00206434 -0.00140064 1.04926)
(-0.00262624 -0.00129603 1.05051)
(0.00234081 -0.0019304 1.05126)
(0.00194805 -0.00194568 1.05012)
(0.00140212 -0.00206429 1.04926)
(0.000846066 -0.00209866 1.04869)
(0.000284447 -0.00213737 1.0484)
(-0.000282747 -0.00213752 1.0484)
(-0.000844355 -0.00209913 1.04869)
(-0.00140014 -0.00206511 1.04926)
(-0.00194596 -0.0019467 1.05012)
(-0.00233906 -0.00193166 1.05126)
(0.0023504 -0.00234883 1.0523)
(0.00193286 -0.00233931 1.05126)
(0.00129732 -0.00262669 1.05051)
(0.00079079 -0.00266172 1.05001)
(0.000250688 -0.00273692 1.04976)
(-0.00024929 -0.002737 1.04976)
(-0.000789439 -0.00266196 1.05001)
(-0.00129563 -0.0026272 1.05051)
(-0.00193089 -0.00233983 1.05126)
(-0.00234881 -0.00234933 1.0523)
(0.00183544 0.00183734 1.05681)
(0.00162339 0.00188699 1.05583)
(0.00108427 0.00205886 1.05512)
(0.000674233 0.00206516 1.05466)
(0.000208695 0.00212604 1.05442)
(-0.000205807 0.00212583 1.05442)
(-0.000673044 0.00206455 1.05466)
(-0.00108138 0.00205884 1.05513)
(-0.00162249 0.00188585 1.05584)
(-0.00183003 0.00183137 1.05682)
(0.00188528 0.00162405 1.05583)
(0.00159159 0.00159313 1.05475)
(0.00112551 0.00166012 1.05394)
(0.000689709 0.00165497 1.05341)
(0.000230788 0.00167876 1.05314)
(-0.000228173 0.00167861 1.05314)
(-0.000687215 0.00165404 1.05341)
(-0.00112295 0.00166022 1.05395)
(-0.00159011 0.0015921 1.05476)
(-0.00188475 0.00162462 1.05584)
(0.00205844 0.00108412 1.05512)
(0.00165927 0.0011262 1.05394)
(0.00118883 0.00118952 1.05306)
(0.000709195 0.00120459 1.05248)
(0.000239669 0.00121775 1.05219)
(-0.000237858 0.00121757 1.05219)
(-0.000707549 0.00120384 1.05248)
(-0.00118625 0.00118842 1.05307)
(-0.00165826 0.00112509 1.05395)
(-0.00205778 0.00108362 1.05513)
(0.00206432 0.000674733 1.05466)
(0.00165411 0.000690227 1.05341)
(0.00120386 0.000709728 1.05248)
(0.000723057 0.000723575 1.05187)
(0.000245021 0.000730739 1.05156)
(-0.000243372 0.000730672 1.05157)
(-0.000721434 0.000723449 1.05187)
(-0.0012017 0.000709523 1.05248)
(-0.00165208 0.000689128 1.05341)
(-0.00206315 0.000674809 1.05466)
(0.00212518 0.000209182 1.05442)
(0.00167791 0.000231288 1.05314)
(0.00121703 0.000240163 1.05219)
(0.000730192 0.000245489 1.05157)
(0.000246457 0.000246896 1.05125)
(-0.000244828 0.000246852 1.05125)
(-0.000728676 0.000245367 1.05157)
(-0.00121546 0.000239865 1.05219)
(-0.00167683 0.00023024 1.05314)
(-0.00212454 0.000207657 1.05443)
(0.00212503 -0.000205245 1.05442)
(0.00167775 -0.000227638 1.05314)
(0.0012168 -0.000237346 1.05219)
(0.000730089 -0.000242906 1.05157)
(0.000246381 -0.000244414 1.05126)
(-0.000244895 -0.000244489 1.05126)
(-0.000728717 -0.00024311 1.05157)
(-0.00121554 -0.000237722 1.05219)
(-0.00167692 -0.000228301 1.05314)
(-0.00212455 -0.000205882 1.05443)
(0.00206364 -0.000672663 1.05466)
(0.00165314 -0.000686761 1.05341)
(0.00120305 -0.00070704 1.05248)
(0.000722808 -0.000720994 1.05187)
(0.000244869 -0.000728258 1.05157)
(-0.000243522 -0.000728328 1.05157)
(-0.000721597 -0.00072122 1.05187)
(-0.00120192 -0.00070742 1.05248)
(-0.00165234 -0.000687199 1.05341)
(-0.00206333 -0.000672952 1.05466)
(0.00205819 -0.0010812 1.05513)
(0.0016595 -0.00112258 1.05395)
(0.00118765 -0.00118585 1.05307)
(0.000708862 -0.00120131 1.05248)
(0.00023935 -0.00121509 1.05219)
(-0.000238165 -0.00121519 1.05219)
(-0.000707808 -0.00120159 1.05248)
(-0.0011866 -0.00118633 1.05307)
(-0.00165857 -0.00112313 1.05395)
(-0.00205774 -0.00108157 1.05513)
(0.00188514 -0.001622 1.05584)
(0.00159139 -0.0015896 1.05476)
(0.00112431 -0.0016578 1.05395)
(0.000688471 -0.00165174 1.05341)
(0.000229705 -0.00167649 1.05314)
(-0.000228745 -0.00167659 1.05314)
(-0.000687666 -0.00165204 1.05341)
(-0.00112347 -0.00165842 1.05395)
(-0.00159047 -0.00159038 1.05476)
(-0.00188469 -0.00162285 1.05584)
(0.00183073 -0.00182948 1.05683)
(0.0016238 -0.00188416 1.05584)
(0.00108266 -0.00205725 1.05513)
(0.000674038 -0.0020629 1.05466)
(0.000207123 -0.0021242 1.05443)
(-0.000206368 -0.00212425 1.05443)
(-0.000673527 -0.00206296 1.05466)
(-0.00108212 -0.00205757 1.05513)
(-0.001623 -0.00188461 1.05584)
(-0.00183014 -0.00183017 1.05683)
(0.00182168 0.00182405 1.06103)
(0.00162127 0.00187336 1.06008)
(0.00108574 0.00196526 1.05939)
(0.000683213 0.00195771 1.05894)
(0.000207198 0.00200192 1.05871)
(-0.000208178 0.00200208 1.05871)
(-0.00068522 0.00195784 1.05894)
(-0.00108639 0.00196631 1.0594)
(-0.00162389 0.00187542 1.06009)
(-0.00182193 0.0018237 1.06105)
(0.00187245 0.00162283 1.06008)
(0.00155974 0.00156156 1.05903)
(0.00109176 0.00159788 1.05826)
(0.000674493 0.00157067 1.05774)
(0.000221309 0.00158554 1.05748)
(-0.000221999 0.00158581 1.05748)
(-0.000675125 0.00157052 1.05775)
(-0.00109186 0.00159876 1.05826)
(-0.00156017 0.00156225 1.05904)
(-0.00187399 0.00162602 1.06009)
(0.00196434 0.00108709 1.05939)
(0.00159642 0.00109335 1.05826)
(0.00113887 0.00114032 1.05742)
(0.000685488 0.00113788 1.05686)
(0.000230167 0.00114701 1.05658)
(-0.000230973 0.00114717 1.05658)
(-0.00068663 0.00113801 1.05686)
(-0.00113869 0.00114043 1.05742)
(-0.00159671 0.00109349 1.05826)
(-0.0019648 0.00108785 1.0594)
(0.00195626 0.000684897 1.05894)
(0.00156896 0.000676054 1.05774)
(0.00113629 0.000686917 1.05686)
(0.000686012 0.000687417 1.05628)
(0.000232381 0.000690163 1.05598)
(-0.000232786 0.000690302 1.05599)
(-0.00068661 0.000687883 1.05628)
(-0.00113632 0.000687792 1.05686)
(-0.00156863 0.000676078 1.05775)
(-0.00195628 0.000685697 1.05894)
(0.00200048 0.000208507 1.05871)
(0.00158384 0.000222668 1.05748)
(0.00114539 0.000231485 1.05658)
(0.000688723 0.000233668 1.05599)
(0.000232805 0.000234073 1.05569)
(-0.000232991 0.000234142 1.05569)
(-0.000689107 0.000233892 1.05599)
(-0.00114566 0.000231906 1.05658)
(-0.00158433 0.000222699 1.05749)
(-0.00200094 0.00020825 1.05871)
(0.0020006 -0.00020691 1.05871)
(0.00158409 -0.000220794 1.05749)
(0.0011455 -0.000229813 1.05658)
(0.000688837 -0.000231651 1.05599)
(0.000232853 -0.00023187 1.05569)
(-0.000232962 -0.00023183 1.05569)
(-0.000689078 -0.000231485 1.05599)
(-0.0011457 -0.000229499 1.05658)
(-0.00158442 -0.000220488 1.05749)
(-0.00200096 -0.00020631 1.05871)
(0.00195613 -0.000684373 1.05894)
(0.00156872 -0.000674295 1.05775)
(0.00113633 -0.000685751 1.05686)
(0.000686412 -0.000685733 1.05628)
(0.000232624 -0.000688166 1.05599)
(-0.000232605 -0.000688101 1.05599)
(-0.000686529 -0.000685534 1.05628)
(-0.00113646 -0.000685437 1.05686)
(-0.00156898 -0.00067391 1.05775)
(-0.00195658 -0.000683773 1.05894)
(0.00196475 -0.00108621 1.0594)
(0.00159711 -0.00109152 1.05827)
(0.00113885 -0.00113828 1.05742)
(0.000686417 -0.00113579 1.05686)
(0.00023073 -0.00114499 1.05658)
(-0.000230574 -0.00114496 1.05658)
(-0.000686415 -0.00113563 1.05686)
(-0.00113887 -0.00113807 1.05742)
(-0.00159718 -0.00109123 1.05827)
(-0.00196505 -0.00108561 1.0594)
(0.00187397 -0.00162388 1.06009)
(0.00156073 -0.00156009 1.05905)
(0.00109205 -0.00159658 1.05827)
(0.000674903 -0.00156842 1.05775)
(0.000221657 -0.00158393 1.05749)
(-0.000221434 -0.00158393 1.05749)
(-0.000674857 -0.00156835 1.05775)
(-0.00109208 -0.00159658 1.05827)
(-0.00156065 -0.00156011 1.05905)
(-0.00187408 -0.00162374 1.06009)
(0.00182226 -0.00182178 1.06105)
(0.00162442 -0.00187377 1.06009)
(0.00108643 -0.00196471 1.0594)
(0.000684656 -0.00195627 1.05894)
(0.000207382 -0.0020007 1.05871)
(-0.000207149 -0.00200072 1.05871)
(-0.000684662 -0.00195613 1.05894)
(-0.00108659 -0.00196462 1.0594)
(-0.00162438 -0.00187376 1.06009)
(-0.00182204 -0.00182187 1.06105)
(0.00196371 0.00196657 1.06558)
(0.00169998 0.00200381 1.06463)
(0.00114605 0.00206466 1.06395)
(0.000724833 0.00206004 1.06349)
(0.000219444 0.00209481 1.06327)
(-0.000218974 0.00209502 1.06327)
(-0.000724957 0.00206011 1.0635)
(-0.0011452 0.00206495 1.06396)
(-0.00170074 0.00200505 1.06465)
(-0.00196294 0.00196683 1.0656)
(0.00200235 0.00170333 1.06463)
(0.00163869 0.00164176 1.0636)
(0.00114743 0.00167339 1.06283)
(0.000710936 0.00164463 1.06232)
(0.000230795 0.00165839 1.06206)
(-0.000229879 0.00165881 1.06206)
(-0.000710166 0.00164469 1.06232)
(-0.00114635 0.00167401 1.06284)
(-0.00163737 0.00164203 1.06361)
(-0.00200161 0.0017055 1.06465)
(0.00206222 0.00114919 1.06395)
(0.00167031 0.00115045 1.06283)
(0.00119133 0.00119426 1.062)
(0.000722862 0.00118729 1.06145)
(0.00024174 0.00119714 1.06117)
(-0.000240723 0.00119735 1.06117)
(-0.000722596 0.00118749 1.06145)
(-0.00119028 0.00119443 1.062)
(-0.00166942 0.00115037 1.06284)
(-0.00206123 0.00114894 1.06396)
(0.00205736 0.000727443 1.0635)
(0.0016414 0.000713608 1.06232)
(0.00118424 0.000725519 1.06145)
(0.000718334 0.000721021 1.06087)
(0.000243133 0.000723293 1.06059)
(-0.000241811 0.000723328 1.06059)
(-0.000717528 0.000721147 1.06088)
(-0.0011834 0.000726099 1.06145)
(-0.00164033 0.000713446 1.06232)
(-0.00205645 0.000727715 1.0635)
(0.0020922 0.000221312 1.06327)
(0.00165533 0.000232916 1.06206)
(0.00119418 0.000243983 1.06117)
(0.000720615 0.000245455 1.06059)
(0.000243929 0.000246269 1.0603)
(-0.000242741 0.000246187 1.0603)
(-0.000719787 0.00024523 1.06059)
(-0.00119342 0.000243915 1.06118)
(-0.00165484 0.00023272 1.06207)
(-0.00209169 0.000221071 1.06327)
(0.00209249 -0.000217373 1.06327)
(0.00165589 -0.000228158 1.06206)
(0.00119448 -0.000238896 1.06117)
(0.000720722 -0.000239873 1.06059)
(0.000243861 -0.000240726 1.0603)
(-0.000242844 -0.000240801 1.0603)
(-0.000719893 -0.000240013 1.06059)
(-0.00119357 -0.000238948 1.06118)
(-0.00165501 -0.000228164 1.06207)
(-0.00209172 -0.000216969 1.06327)
(0.00205754 -0.000723841 1.0635)
(0.00164185 -0.000708972 1.06232)
(0.00118476 -0.000721268 1.06145)
(0.000718667 -0.000716057 1.06088)
(0.000242999 -0.000718155 1.06059)
(-0.000242027 -0.000718175 1.06059)
(-0.000717823 -0.000716055 1.06088)
(-0.00118388 -0.000721225 1.06145)
(-0.00164097 -0.000708977 1.06232)
(-0.00205681 -0.000723742 1.0635)
(0.00206253 -0.00114484 1.06396)
(0.00167136 -0.0011458 1.06284)
(0.0011919 -0.00118959 1.062)
(0.000723835 -0.00118247 1.06145)
(0.000241854 -0.00119228 1.06118)
(-0.000240857 -0.00119229 1.06118)
(-0.000722952 -0.00118243 1.06145)
(-0.00119101 -0.00118953 1.06201)
(-0.00167042 -0.00114575 1.06284)
(-0.00206175 -0.00114457 1.06396)
(0.00200297 -0.00170084 1.06465)
(0.0016396 -0.00163729 1.06361)
(0.0011481 -0.0016692 1.06284)
(0.000711492 -0.0016399 1.06232)
(0.000230881 -0.00165413 1.06207)
(-0.000229874 -0.00165417 1.06207)
(-0.000710585 -0.00163989 1.06232)
(-0.00114724 -0.00166925 1.06284)
(-0.00163855 -0.00163742 1.06361)
(-0.00200195 -0.00170082 1.06465)
(0.00196479 -0.00196263 1.0656)
(0.00170303 -0.00200129 1.06465)
(0.00114683 -0.00206114 1.06396)
(0.000726036 -0.00205629 1.0635)
(0.00021946 -0.0020913 1.06327)
(-0.000218502 -0.00209135 1.06327)
(-0.000725172 -0.00205619 1.0635)
(-0.00114613 -0.00206101 1.06396)
(-0.0017021 -0.00200137 1.06465)
(-0.00196343 -0.00196292 1.06561)
(0.00207327 0.00207793 1.07051)
(0.00174866 0.00210803 1.06955)
(0.00118654 0.00216456 1.06886)
(0.00075093 0.00216845 1.0684)
(0.00022692 0.00219995 1.06817)
(-0.000225562 0.00220024 1.06817)
(-0.000750014 0.00216873 1.06841)
(-0.00118503 0.00216471 1.06887)
(-0.00174851 0.00210821 1.06956)
(-0.00207145 0.00207694 1.07053)
(0.0021046 0.00175359 1.06955)
(0.00170205 0.00170677 1.06851)
(0.00119519 0.00174356 1.06774)
(0.000739901 0.00172092 1.06722)
(0.000238215 0.00173658 1.06696)
(-0.000236162 0.00173708 1.06696)
(-0.000738251 0.00172124 1.06722)
(-0.00119379 0.00174427 1.06774)
(-0.00170053 0.001707 1.06852)
(-0.00210329 0.00175507 1.06957)
(0.00216041 0.0011902 1.06886)
(0.00173877 0.00119912 1.06774)
(0.00124041 0.00124446 1.0669)
(0.000755685 0.00123901 1.06635)
(0.000251239 0.00125084 1.06607)
(-0.000248978 0.00125103 1.06607)
(-0.000754403 0.0012392 1.06635)
(-0.00123909 0.00124474 1.06691)
(-0.0017379 0.00119928 1.06774)
(-0.00215933 0.00119009 1.06887)
(0.00216459 0.000753506 1.0684)
(0.00171644 0.000743027 1.06722)
(0.00123499 0.00075905 1.06635)
(0.0007505 0.000753945 1.06577)
(0.000252899 0.000757321 1.06548)
(-0.000250478 0.000757278 1.06548)
(-0.000748708 0.000753778 1.06577)
(-0.0012336 0.000759385 1.06635)
(-0.00171517 0.000743044 1.06723)
(-0.00216349 0.000754246 1.06841)
(0.00219626 0.000228872 1.06817)
(0.00173249 0.000240641 1.06696)
(0.00124702 0.000253963 1.06607)
(0.000753928 0.000255787 1.06548)
(0.000254618 0.000257546 1.06519)
(-0.000252554 0.000257388 1.06519)
(-0.000752253 0.000255288 1.06549)
(-0.00124553 0.000253567 1.06607)
(-0.00173131 0.000240402 1.06697)
(-0.00219521 0.00022898 1.06818)
(0.00219674 -0.000223948 1.06817)
(0.00173329 -0.000234228 1.06696)
(0.00124742 -0.000246803 1.06607)
(0.000754018 -0.000248106 1.06549)
(0.000254497 -0.000250067 1.06519)
(-0.000252728 -0.000250215 1.06519)
(-0.000752454 -0.000248472 1.06549)
(-0.00124575 -0.000247177 1.06607)
(-0.00173155 -0.000234557 1.06697)
(-0.00219527 -0.00022376 1.06818)
(0.00216536 -0.000748692 1.06841)
(0.00171767 -0.000736784 1.06722)
(0.00123582 -0.000752774 1.06635)
(0.000750706 -0.000746886 1.06577)
(0.000252504 -0.000750275 1.06549)
(-0.000250961 -0.000750399 1.06549)
(-0.000749271 -0.00074716 1.06578)
(-0.00123431 -0.000753157 1.06635)
(-0.00171602 -0.000737372 1.06723)
(-0.00216386 -0.000749283 1.06841)
(0.00216143 -0.00118431 1.06887)
(0.00174083 -0.00119293 1.06774)
(0.00124154 -0.00123813 1.06691)
(0.000756514 -0.00123241 1.06635)