/*--------------------------------*- C++ -*----------------------------------*\
| =========                 |                                                 |
| \\      /  F ield         | OpenFOAM: The Open Source CFD Toolbox           |
|  \\    /   O peration     | Version:  2406                                  |
|   \\  /    A nd           | Website:  www.openfoam.com                      |
|    \\/     M anipulation  |                                                 |
\*---------------------------------------------------------------------------*/
FoamFile
{
    version     2.0;
    format      ascii;
    arch        "LSB;label=32;scalar=64";
    class       surfaceScalarField;
    location    "5";
    object      phi;
}
// * * * * * * * * * * * * * * * * * * * * * * * * * * * * * * * * * * * * * //

dimensions      [0 3 -1 0 0 0 0];

oriented        oriented;

internalField   nonuniform List<scalar> 
46880
(
5.70227e-05
5.70227e-05
9.25627e-05
-6.58089e-05
-6.58089e-05
4.14847e-05
5.85524e-05
0.000107332
-6.81955e-05
2.17749e-05
5.89973e-05
0.000116854
-6.9121e-05
2.14003e-13
5.91027e-05
0.000121561
-6.94051e-05
-2.17749e-05
5.91027e-05
0.000121561
-6.94051e-05
-4.14847e-05
5.89973e-05
0.000116854
-6.9121e-05
-5.70227e-05
5.85524e-05
0.000107332
-6.81955e-05
5.70227e-05
9.25627e-05
-6.58089e-05
-6.58089e-05
5.85524e-05
4.14847e-05
0.000107332
-6.81955e-05
4.20291e-05
4.20291e-05
0.000121733
2.18254e-05
4.20503e-05
0.000130284
2.16371e-13
4.1986e-05
0.000134326
-2.18254e-05
4.1986e-05
0.000134326
-4.20291e-05
4.20503e-05
0.000130284
-5.85524e-05
4.20291e-05
0.000121733
4.14847e-05
0.000107332
-6.81955e-05
5.89973e-05
2.17749e-05
0.000116854
-6.9121e-05
4.20503e-05
2.18254e-05
0.000130284
2.17158e-05
2.17158e-05
0.000137965
1.79316e-13
2.16254e-05
0.00014148
-2.17158e-05
2.16254e-05
0.00014148
-4.20503e-05
2.17158e-05
0.000137965
-5.89973e-05
2.18254e-05
0.000130284
2.17749e-05
0.000116854
-6.9121e-05
5.91027e-05
1.01628e-12
0.000121561
-6.94051e-05
4.1986e-05
1.247e-12
0.000134326
2.16254e-05
1.22414e-12
0.00014148
1.49595e-13
1.19929e-12
0.000144691
-2.16254e-05
1.16482e-12
0.000144691
-4.1986e-05
1.12779e-12
0.00014148
-5.91027e-05
1.12699e-12
0.000134326
9.2218e-13
0.000121561
-6.94051e-05
5.91027e-05
-2.17749e-05
0.000121561
-6.94051e-05
4.1986e-05
-2.18254e-05
0.000134326
2.16254e-05
-2.17158e-05
0.00014148
1.15611e-13
-2.16254e-05
0.000144691
-2.16254e-05
-2.16254e-05
0.000144691
-4.1986e-05
-2.17158e-05
0.00014148
-5.91027e-05
-2.18254e-05
0.000134326
-2.17749e-05
0.000121561
-6.94051e-05
5.89973e-05
-4.14846e-05
0.000116854
-6.9121e-05
4.20503e-05
-4.20291e-05
0.000130284
2.17158e-05
-4.20503e-05
0.000137965
7.10093e-14
-4.1986e-05
0.00014148
-2.17158e-05
-4.1986e-05
0.00014148
-4.20503e-05
-4.20503e-05
0.000137965
-5.89973e-05
-4.20291e-05
0.000130284
-4.14846e-05
0.000116854
-6.9121e-05
5.85524e-05
-5.70227e-05
0.000107332
-6.81955e-05
4.20291e-05
-5.85524e-05
0.000121733
2.18254e-05
-5.89973e-05
0.000130284
2.76142e-14
-5.91027e-05
0.000134326
-2.18254e-05
-5.91027e-05
0.000134326
-4.20291e-05
-5.89973e-05
0.000130284
-5.85524e-05
-5.85524e-05
0.000121733
-5.70227e-05
0.000107332
-6.81955e-05
5.70227e-05
9.25627e-05
-6.58089e-05
-6.58089e-05
4.14847e-05
0.000107332
-6.81955e-05
2.17749e-05
0.000116854
-6.9121e-05
-6.83948e-16
0.000121561
-6.94051e-05
-2.17749e-05
0.000121561
-6.94051e-05
-4.14847e-05
0.000116854
-6.9121e-05
-5.70227e-05
0.000107332
-6.81955e-05
9.25627e-05
-6.58089e-05
-6.58089e-05
2.12981e-05
2.12981e-05
9.11553e-05
-2.05944e-05
-2.05944e-05
1.7387e-05
2.43165e-05
0.000110076
-2.31488e-05
9.64834e-06
2.60548e-05
0.000123205
-2.46671e-05
1.37259e-13
2.68715e-05
0.000129837
-2.54995e-05
-9.64834e-06
2.68715e-05
0.000129837
-2.54995e-05
-1.7387e-05
2.60548e-05
0.000123205
-2.46671e-05
-2.12981e-05
2.43165e-05
0.000110076
-2.31488e-05
2.12981e-05
9.11553e-05
-2.05944e-05
-2.05944e-05
2.43165e-05
1.7387e-05
0.000110076
-2.31488e-05
1.97648e-05
1.97648e-05
0.000130836
1.0936e-05
2.11179e-05
0.00014405
1.17772e-13
2.17195e-05
0.000150414
-1.0936e-05
2.17195e-05
0.000150414
-1.97648e-05
2.11179e-05
0.00014405
-2.43165e-05
1.97648e-05
0.000130836
1.7387e-05
0.000110076
-2.31488e-05
2.60548e-05
9.64834e-06
0.000123205
-2.46671e-05
2.11179e-05
1.0936e-05
0.00014405
1.1672e-05
1.1672e-05
0.000156857
7.85397e-14
1.19938e-05
0.000162878
-1.1672e-05
1.19938e-05
0.000162878
-2.11179e-05
1.1672e-05
0.000156857
-2.60548e-05
1.0936e-05
0.00014405
9.64834e-06
0.000123205
-2.46671e-05
2.68715e-05
8.68471e-13
0.000129837
-2.54995e-05
2.17195e-05
1.00468e-12
0.000150414
1.19938e-05
9.57142e-13
0.000162878
5.00938e-14
9.33156e-13
0.000168678
-1.19938e-05
9.03797e-13
0.000168678
-2.17195e-05
8.78836e-13
0.000162878
-2.68715e-05
9.11869e-13
0.000150414
8.0103e-13
0.000129837
-2.54995e-05
2.68715e-05
-9.64834e-06
0.000129837
-2.54995e-05
2.17195e-05
-1.0936e-05
0.000150414
1.19938e-05
-1.1672e-05
0.000162878
2.09151e-14
-1.19938e-05
0.000168678
-1.19938e-05
-1.19938e-05
0.000168678
-2.17195e-05
-1.1672e-05
0.000162878
-2.68715e-05
-1.0936e-05
0.000150414
-9.64834e-06
0.000129837
-2.54995e-05
2.60548e-05
-1.7387e-05
0.000123205
-2.46671e-05
2.11179e-05
-1.97648e-05
0.00014405
1.1672e-05
-2.11179e-05
0.000156857
-1.44805e-14
-2.17195e-05
0.000162878
-1.1672e-05
-2.17195e-05
0.000162878
-2.11179e-05
-2.11179e-05
0.000156857
-2.60548e-05
-1.97648e-05
0.00014405
-1.7387e-05
0.000123205
-2.46671e-05
2.43165e-05
-2.12981e-05
0.000110076
-2.31488e-05
1.97648e-05
-2.43165e-05
0.000130836
1.0936e-05
-2.60548e-05
0.00014405
-5.50627e-14
-2.68715e-05
0.000150414
-1.0936e-05
-2.68715e-05
0.000150414
-1.97648e-05
-2.60548e-05
0.00014405
-2.43165e-05
-2.43165e-05
0.000130836
-2.12981e-05
0.000110076
-2.31488e-05
2.12981e-05
9.11553e-05
-2.05944e-05
-2.05944e-05
1.7387e-05
0.000110076
-2.31488e-05
9.64834e-06
0.000123205
-2.46671e-05
-7.57439e-14
0.000129837
-2.54995e-05
-9.64834e-06
0.000129837
-2.54995e-05
-1.7387e-05
0.000123205
-2.46671e-05
-2.12981e-05
0.000110076
-2.31488e-05
9.11553e-05
-2.05944e-05
-2.05944e-05
1.18127e-05
1.18127e-05
8.91259e-05
-1.0798e-05
-1.0798e-05
9.90265e-06
1.43956e-05
0.000110627
-1.30364e-05
5.62155e-06
1.59718e-05
0.000125963
-1.44489e-05
2.41924e-13
1.67467e-05
0.000133897
-1.51853e-05
-5.62154e-06
1.67467e-05
0.000133897
-1.51853e-05
-9.90265e-06
1.59718e-05
0.000125963
-1.44489e-05
-1.18127e-05
1.43956e-05
0.000110627
-1.30364e-05
1.18127e-05
8.91259e-05
-1.0798e-05
-1.0798e-05
1.43956e-05
9.90265e-06
0.000110627
-1.30364e-05
1.20477e-05
1.20477e-05
0.000135532
6.80902e-06
1.33212e-05
0.000151939
1.85067e-13
1.39201e-05
0.00016005
-6.80902e-06
1.39201e-05
0.00016005
-1.20477e-05
1.33212e-05
0.000151939
-1.43956e-05
1.20477e-05
0.000135532
9.90265e-06
0.000110627
-1.30364e-05
1.59718e-05
5.62155e-06
0.000125963
-1.44489e-05
1.33212e-05
6.80903e-06
0.000151939
7.49972e-06
7.49973e-06
0.0001685
1.06049e-13
7.81056e-06
0.000176487
-7.49972e-06
7.81056e-06
0.000176487
-1.33212e-05
7.49972e-06
0.0001685
-1.59718e-05
6.80902e-06
0.000151939
5.62155e-06
0.000125963
-1.44489e-05
1.67467e-05
1.04027e-12
0.000133897
-1.51853e-05
1.39201e-05
1.12167e-12
0.00016005
7.81056e-06
9.80636e-13
0.000176487
5.41923e-14
8.92447e-13
0.000184299
-7.81056e-06
8.50415e-13
0.000184299
-1.39201e-05
8.57487e-13
0.000176487
-1.67467e-05
9.41797e-13
0.00016005
8.55594e-13
0.000133897
-1.51853e-05
1.67467e-05
-5.62154e-06
0.000133897
-1.51853e-05
1.39201e-05
-6.80902e-06
0.00016005
7.81056e-06
-7.49972e-06
0.000176487
1.33168e-14
-7.81055e-06
0.000184299
-7.81056e-06
-7.81055e-06
0.000184299
-1.39201e-05
-7.49972e-06
0.000176487
-1.67467e-05
-6.80902e-06
0.00016005
-5.62154e-06
0.000133897
-1.51853e-05
1.59718e-05
-9.90265e-06
0.000125963
-1.44489e-05
1.33212e-05
-1.20476e-05
0.000151939
7.49972e-06
-1.33212e-05
0.0001685
-2.93913e-14
-1.39201e-05
0.000176487
-7.49972e-06
-1.39201e-05
0.000176487
-1.33212e-05
-1.33212e-05
0.0001685
-1.59718e-05
-1.20477e-05
0.000151939
-9.90265e-06
0.000125963
-1.44489e-05
1.43956e-05
-1.18127e-05
0.000110627
-1.30364e-05
1.20477e-05
-1.43956e-05
0.000135532
6.80902e-06
-1.59718e-05
0.000151939
-7.54483e-14
-1.67467e-05
0.00016005
-6.80902e-06
-1.67467e-05
0.00016005
-1.20477e-05
-1.59718e-05
0.000151939
-1.43956e-05
-1.43956e-05
0.000135532
-1.18127e-05
0.000110627
-1.30364e-05
1.18127e-05
8.91259e-05
-1.0798e-05
-1.0798e-05
9.90265e-06
0.000110627
-1.30364e-05
5.62154e-06
0.000125963
-1.44489e-05
-9.69314e-14
0.000133897
-1.51853e-05
-5.62154e-06
0.000133897
-1.51853e-05
-9.90265e-06
0.000125963
-1.44489e-05
-1.18127e-05
0.000110627
-1.30364e-05
8.91259e-05
-1.0798e-05
-1.0798e-05
2.98521e-06
2.98521e-06
8.73785e-05
-2.11152e-06
-2.11152e-06
2.93654e-06
4.20871e-06
0.000109321
-2.85467e-06
1.80601e-06
5.10333e-06
0.000125443
-3.45295e-06
3.6757e-14
5.56796e-06
0.000133927
-3.79171e-06
-1.80601e-06
5.56796e-06
0.000133927
-3.79171e-06
-2.93654e-06
5.10333e-06
0.000125443
-3.45295e-06
-2.98521e-06
4.20871e-06
0.000109321
-2.85467e-06
2.98521e-06
8.73785e-05
-2.11152e-06
-2.11152e-06
4.20871e-06
2.93654e-06
0.000109321
-2.85467e-06
4.13753e-06
4.13753e-06
0.000135674
2.52404e-06
4.95623e-06
0.000153699
5.6217e-15
5.34154e-06
0.0001628
-2.52404e-06
5.34154e-06
0.0001628
-4.13753e-06
4.95623e-06
0.000153699
-4.20871e-06
4.13753e-06
0.000135674
2.93654e-06
0.000109321
-2.85467e-06
5.10333e-06
1.80601e-06
0.000125443
-3.45295e-06
4.95623e-06
2.52404e-06
0.000153699
2.98743e-06
2.98743e-06
0.000172437
-3.17742e-14
3.17437e-06
0.000181642
-2.98743e-06
3.17437e-06
0.000181642
-4.95623e-06
2.98743e-06
0.000172437
-5.10333e-06
2.52404e-06
0.000153699
1.80601e-06
0.000125443
-3.45295e-06
5.56796e-06
9.72715e-13
0.000133927
-3.79171e-06
5.34154e-06
1.09458e-12
0.0001628
3.17437e-06
9.68673e-13
0.000181642
-6.29879e-14
8.60845e-13
0.000190648
-3.17437e-06
8.37248e-13
0.000190648
-5.34154e-06
9.02385e-13
0.000181642
-5.56796e-06
1.02086e-12
0.0001628
9.36929e-13
0.000133927
-3.79171e-06
5.56796e-06
-1.80601e-06
0.000133927
-3.79171e-06
5.34154e-06
-2.52404e-06
0.0001628
3.17437e-06
-2.98743e-06
0.000181642
-8.65658e-14
-3.17437e-06
0.000190648
-3.17437e-06
-3.17437e-06
0.000190648
-5.34154e-06
-2.98743e-06
0.000181642
-5.56796e-06
-2.52404e-06
0.0001628
-1.80601e-06
0.000133927
-3.79171e-06
5.10333e-06
-2.93654e-06
0.000125443
-3.45295e-06
4.95623e-06
-4.13753e-06
0.000153699
2.98743e-06
-4.95623e-06
0.000172437
-1.13622e-13
-5.34154e-06
0.000181642
-2.98743e-06
-5.34154e-06
0.000181642
-4.95623e-06
-4.95623e-06
0.000172437
-5.10333e-06
-4.13753e-06
0.000153699
-2.93654e-06
0.000125443
-3.45295e-06
4.20871e-06
-2.98521e-06
0.000109321
-2.85467e-06
4.13753e-06
-4.20871e-06
0.000135674
2.52404e-06
-5.10333e-06
0.000153699
-1.50925e-13
-5.56796e-06
0.0001628
-2.52404e-06
-5.56796e-06
0.0001628
-4.13753e-06
-5.10333e-06
0.000153699
-4.20871e-06
-4.20871e-06
0.000135674
-2.98521e-06
0.000109321
-2.85467e-06
2.98521e-06
8.73785e-05
-2.11152e-06
-2.11152e-06
2.93654e-06
0.000109321
-2.85467e-06
1.80601e-06
0.000125443
-3.45295e-06
-1.65189e-13
0.000133927
-3.79171e-06
-1.80601e-06
0.000133927
-3.79171e-06
-2.93654e-06
0.000125443
-3.45295e-06
-2.98521e-06
0.000109321
-2.85467e-06
8.73785e-05
-2.11152e-06
-2.11152e-06
1.75855e-06
1.75855e-06
8.68359e-05
-1.48727e-06
-1.48727e-06
1.58507e-06
2.31764e-06
0.000109058
-1.88066e-06
9.44341e-07
2.7317e-06
0.000125519
-2.1672e-06
3.44136e-13
2.94525e-06
0.000134245
-2.31887e-06
-9.44341e-07
2.94525e-06
0.000134245
-2.31887e-06
-1.58507e-06
2.7317e-06
0.000125519
-2.1672e-06
-1.75855e-06
2.31764e-06
0.000109058
-1.88066e-06
1.75855e-06
8.68359e-05
-1.48727e-06
-1.48727e-06
2.31764e-06
1.58508e-06
0.000109058
-1.88066e-06
2.13339e-06
2.13339e-06
0.000136043
1.27625e-06
2.52942e-06
0.000154759
2.81273e-13
2.71285e-06
0.000164309
-1.27625e-06
2.71285e-06
0.000164309
-2.13339e-06
2.52942e-06
0.000154759
-2.31764e-06
2.13339e-06
0.000136043
1.58508e-06
0.000109058
-1.88066e-06
2.7317e-06
9.44342e-07
0.000125519
-2.1672e-06
2.52941e-06
1.27625e-06
0.000154759
1.50567e-06
1.50567e-06
0.000174485
1.77243e-13
1.58998e-06
0.00018427
-1.50567e-06
1.58998e-06
0.00018427
-2.52941e-06
1.50567e-06
0.000174485
-2.7317e-06
1.27625e-06
0.000154759
9.44342e-07
0.000125519
-2.1672e-06
2.94525e-06
1.29577e-12
0.000134245
-2.31887e-06
2.71285e-06
1.41107e-12
0.000164309
1.58997e-06
1.22061e-12
0.00018427
1.00609e-13
1.04225e-12
0.000193828
-1.58997e-06
9.96897e-13
0.000193828
-2.71285e-06
1.08134e-12
0.00018427
-2.94525e-06
1.20473e-12
0.000164309
1.08442e-12
0.000134245
-2.31887e-06
2.94525e-06
-9.4434e-07
0.000134245
-2.31887e-06
2.71285e-06
-1.27624e-06
0.000164309
1.58997e-06
-1.50567e-06
0.00018427
5.62915e-14
-1.58997e-06
0.000193828
-1.58997e-06
-1.58997e-06
0.000193828
-2.71285e-06
-1.50567e-06
0.00018427
-2.94525e-06
-1.27624e-06
0.000164309
-9.4434e-07
0.000134245
-2.31887e-06
2.7317e-06
-1.58507e-06
0.000125519
-2.1672e-06
2.52941e-06
-2.13338e-06
0.000154759
1.50567e-06
-2.52941e-06
0.000174485
2.39891e-14
-2.71285e-06
0.00018427
-1.50567e-06
-2.71285e-06
0.00018427
-2.52941e-06
-2.52941e-06
0.000174485
-2.7317e-06
-2.13338e-06
0.000154759
-1.58507e-06
0.000125519
-2.1672e-06
2.31764e-06
-1.75855e-06
0.000109058
-1.88066e-06
2.13339e-06
-2.31763e-06
0.000136043
1.27625e-06
-2.7317e-06
0.000154759
-6.85391e-15
-2.94525e-06
0.000164309
-1.27625e-06
-2.94525e-06
0.000164309
-2.13339e-06
-2.7317e-06
0.000154759
-2.31764e-06
-2.31763e-06
0.000136043
-1.75855e-06
0.000109058
-1.88066e-06
1.75855e-06
8.68359e-05
-1.48727e-06
-1.48727e-06
1.58507e-06
0.000109058
-1.88066e-06
9.44341e-07
0.000125519
-2.1672e-06
-3.27433e-14
0.000134245
-2.31887e-06
-9.44341e-07
0.000134245
-2.31887e-06
-1.58507e-06
0.000125519
-2.1672e-06
-1.75855e-06
0.000109058
-1.88066e-06
8.68359e-05
-1.48727e-06
-1.48727e-06
6.09094e-07
6.09095e-07
8.65409e-05
-4.61559e-07
-4.61558e-07
5.88221e-07
8.41815e-07
0.000108839
-6.01563e-07
3.62056e-07
1.02624e-06
0.000125434
-7.14691e-07
-2.81345e-14
1.12581e-06
0.00013426
-7.78511e-07
-3.62057e-07
1.12581e-06
0.00013426
-7.78511e-07
-5.88221e-07
1.02624e-06
0.000125434
-7.14691e-07
-6.09094e-07
8.41815e-07
0.000108839
-6.01563e-07
6.09095e-07
8.65409e-05
-4.61559e-07
-4.61559e-07
8.41814e-07
5.88222e-07
0.000108839
-6.01562e-07
8.30744e-07
8.30746e-07
0.000136065
5.13707e-07
1.01887e-06
0.000155083
-4.94715e-14
1.11174e-06
0.000164837
-5.13707e-07
1.11174e-06
0.000164837
-8.30745e-07
1.01887e-06
0.000155083
-8.41815e-07
8.30746e-07
0.000136065
5.88222e-07
0.000108839
-6.01564e-07
1.02624e-06
3.62058e-07
0.000125434
-7.14691e-07
1.01887e-06
5.13708e-07
0.000155083
6.28552e-07
6.28553e-07
0.000175266
-7.81801e-14
6.77036e-07
0.000185334
-6.28552e-07
6.77036e-07
0.000185334
-1.01887e-06
6.28553e-07
0.000175266
-1.02624e-06
5.13708e-07
0.000155083
3.62058e-07
0.000125434
-7.14692e-07
1.12581e-06
1.28967e-12
0.00013426
-7.78511e-07
1.11173e-06
1.47008e-12
0.000164837
6.77035e-07
1.33138e-12
0.000185334
-9.54512e-14
1.18861e-12
0.000195182
-6.77035e-07
1.17472e-12
0.000195182
-1.11173e-06
1.30188e-12
0.000185334
-1.12581e-06
1.46091e-12
0.000164837
1.33788e-12
0.00013426
-7.78512e-07
1.12581e-06
-3.62055e-07
0.00013426
-7.78511e-07
1.11173e-06
-5.13705e-07
0.000164837
6.77035e-07
-6.28551e-07
0.000185334
-1.08628e-13
-6.77034e-07
0.000195182
-6.77035e-07
-6.77034e-07
0.000195182
-1.11174e-06
-6.28551e-07
0.000185334
-1.12581e-06
-5.13705e-07
0.000164837
-3.62055e-07
0.00013426
-7.78512e-07
1.02624e-06
-5.8822e-07
0.000125434
-7.14691e-07
1.01887e-06
-8.30743e-07
0.000155083
6.28552e-07
-1.01887e-06
0.000175266
-1.21988e-13
-1.11173e-06
0.000185334
-6.28552e-07
-1.11173e-06
0.000185334
-1.01887e-06
-1.01887e-06
0.000175266
-1.02624e-06
-8.30743e-07
0.000155083
-5.8822e-07
0.000125434
-7.14692e-07
8.41815e-07
-6.09093e-07
0.000108839
-6.01562e-07
8.30745e-07
-8.41813e-07
0.000136065
5.13707e-07
-1.02624e-06
0.000155083
-1.41501e-13
-1.12581e-06
0.000164837
-5.13707e-07
-1.12581e-06
0.000164837
-8.30745e-07
-1.02624e-06
0.000155083
-8.41815e-07
-8.41813e-07
0.000136065
-6.09093e-07
0.000108839
-6.01563e-07
6.09094e-07
8.65409e-05
-4.61558e-07
-4.61558e-07
5.88221e-07
0.000108839
-6.01562e-07
3.62056e-07
0.000125434
-7.14691e-07
-1.47023e-13
0.00013426
-7.78511e-07
-3.62057e-07
0.00013426
-7.78511e-07
-5.88221e-07
0.000125434
-7.14691e-07
-6.09094e-07
0.000108839
-6.01563e-07
8.65409e-05
-4.61559e-07
-4.61558e-07
3.37042e-07
3.37043e-07
8.64326e-05
-2.82881e-07
-2.82881e-07
3.05728e-07
4.42556e-07
0.000108783
-3.55841e-07
1.82771e-07
5.24017e-07
0.000125443
-4.10569e-07
2.68753e-13
5.67998e-07
0.000134315
-4.40395e-07
-1.8277e-07
5.67997e-07
0.000134315
-4.40395e-07
-3.05727e-07
5.24016e-07
0.000125443
-4.10568e-07
-3.37042e-07
4.42556e-07
0.000108783
-3.55841e-07
3.37043e-07
8.64326e-05
-2.82881e-07
-2.82881e-07
4.42554e-07
3.05729e-07
0.000108783
-3.5584e-07
4.11361e-07
4.11363e-07
0.000136127
2.48164e-07
4.93895e-07
0.000155277
2.16026e-13
5.35807e-07
0.000165117
-2.48164e-07
5.35806e-07
0.000165117
-4.11361e-07
4.93895e-07
0.000155277
-4.42555e-07
4.11363e-07
0.000136127
3.05729e-07
0.000108783
-3.55841e-07
5.24015e-07
1.82772e-07
0.000125443
-4.10567e-07
4.93893e-07
2.48166e-07
0.000155277
2.99349e-07
2.99351e-07
0.000175655
1.23917e-13
3.22833e-07
0.000185846
-2.99349e-07
3.22832e-07
0.000185846
-4.93893e-07
2.9935e-07
0.000175655
-5.24016e-07
2.48166e-07
0.000155277
1.82772e-07
0.000125443
-4.10569e-07
5.67996e-07
1.8718e-12
0.000134315
-4.40393e-07
5.35805e-07
2.04003e-12
0.000165117
3.22831e-07
1.79792e-12
0.000185846
5.6675e-14
1.56671e-12
0.000195828
-3.22831e-07
1.51801e-12
0.000195828
-5.35805e-07
1.65956e-12
0.000185846
-5.67996e-07
1.82296e-12
0.000165117
1.643e-12
0.000134315
-4.40395e-07
5.67996e-07
-1.82769e-07
0.000134315
-4.40393e-07
5.35805e-07
-2.48162e-07
0.000165117
3.22831e-07
-2.99347e-07
0.000185846
1.00563e-14
-3.22829e-07
0.000195828
-3.22831e-07
-3.22829e-07
0.000195828
-5.35805e-07
-2.99347e-07
0.000185846
-5.67996e-07
-2.48162e-07
0.000165117
-1.82769e-07
0.000134315
-4.40395e-07
5.24015e-07
-3.05726e-07
0.000125443
-4.10567e-07
4.93893e-07
-4.11359e-07
0.000155277
2.99349e-07
-4.93892e-07
0.000175655
-2.28435e-14
-5.35803e-07
0.000185846
-2.99349e-07
-5.35803e-07
0.000185846
-4.93894e-07
-4.93892e-07
0.000175655
-5.24016e-07
-4.11359e-07
0.000155277
-3.05726e-07
0.000125443
-4.10569e-07
4.42554e-07
-3.37041e-07
0.000108783
-3.5584e-07
4.11361e-07
-4.42553e-07
0.000136127
2.48164e-07
-5.24014e-07
0.000155277
-6.98201e-14
-5.67995e-07
0.000165117
-2.48164e-07
-5.67995e-07
0.000165117
-4.11361e-07
-5.24014e-07
0.000155277
-4.42555e-07
-4.42553e-07
0.000136127
-3.37041e-07
0.000108783
-3.55841e-07
3.37042e-07
8.64326e-05
-2.8288e-07
-2.8288e-07
3.05727e-07
0.000108783
-3.5584e-07
1.8277e-07
0.000125443
-4.10567e-07
-8.93646e-14
0.000134315
-4.40393e-07
-1.82771e-07
0.000134315
-4.40393e-07
-3.05728e-07
0.000125443
-4.10567e-07
-3.37042e-07
0.000108783
-3.5584e-07
8.64326e-05
-2.8288e-07
-2.8288e-07
1.51349e-07
1.5135e-07
8.63735e-05
-1.21837e-07
-1.21836e-07
1.4034e-07
2.02146e-07
0.000108747
-1.55427e-07
8.45679e-08
2.41371e-07
0.000125439
-1.81513e-07
-1.26243e-13
2.62704e-07
0.000134333
-1.96085e-07
-8.45681e-08
2.62704e-07
0.000134333
-1.96085e-07
-1.4034e-07
2.41371e-07
0.000125439
-1.81513e-07
-1.51349e-07
2.02146e-07
0.000108747
-1.55427e-07
1.5135e-07
8.63735e-05
-1.21837e-07
-1.21837e-07
2.02144e-07
1.40342e-07
0.000108747
-1.55426e-07
1.91011e-07
1.91013e-07
0.00013615
1.15755e-07
2.3023e-07
0.000155363
-1.15191e-13
2.50411e-07
0.000165245
-1.15756e-07
2.50411e-07
0.000165245
-1.91012e-07
2.3023e-07
0.000155363
-2.02144e-07
1.91013e-07
0.00013615
1.40342e-07
0.000108747
-1.55427e-07
2.41369e-07
8.45699e-08
0.000125439
-1.81512e-07
2.30228e-07
1.15758e-07
0.000155363
1.40054e-07
1.40056e-07
0.000175835
-1.1473e-13
1.51655e-07
0.000186085
-1.40054e-07
1.51655e-07
0.000186085
-2.30228e-07
1.40056e-07
0.000175835
-2.4137e-07
1.15758e-07
0.000155363
8.457e-08
0.000125439
-1.81513e-07
2.62702e-07
1.75291e-12
0.000134333
-1.96083e-07
2.50409e-07
1.98558e-12
0.000165245
1.51653e-07
1.80891e-12
0.000186085
-1.12581e-13
1.62948e-12
0.000196131
-1.51653e-07
1.61701e-12
0.000196131
-2.50409e-07
1.79798e-12
0.000186085
-2.62703e-07
1.99652e-12
0.000165245
1.82525e-12
0.000134333
-1.96085e-07
2.62703e-07
-8.45665e-08
0.000134333
-1.96083e-07
2.50409e-07
-1.15754e-07
0.000165245
1.51653e-07
-1.40052e-07
0.000186085
-1.23768e-13
-1.51651e-07
0.000196131
-1.51653e-07
-1.51651e-07
0.000196131
-2.50409e-07
-1.40052e-07
0.000186085
-2.62703e-07
-1.15754e-07
0.000165245
-8.45664e-08
0.000134333
-1.96085e-07
2.4137e-07
-1.40338e-07
0.000125439
-1.81512e-07
2.30228e-07
-1.9101e-07
0.000155363
1.40054e-07
-2.30226e-07
0.000175835
-1.36404e-13
-2.50408e-07
0.000186085
-1.40054e-07
-2.50408e-07
0.000186085
-2.30228e-07
-2.30226e-07
0.000175835
-2.4137e-07
-1.9101e-07
0.000155363
-1.40338e-07
0.000125439
-1.81513e-07
2.02144e-07
-1.51348e-07
0.000108747
-1.55426e-07
1.91012e-07
-2.02143e-07
0.00013615
1.15755e-07
-2.41368e-07
0.000155363
-1.67695e-13
-2.62701e-07
0.000165245
-1.15756e-07
-2.62701e-07
0.000165245
-1.91012e-07
-2.41369e-07
0.000155363
-2.02144e-07
-2.02143e-07
0.00013615
-1.51348e-07
0.000108747
-1.55427e-07
1.51349e-07
8.63735e-05
-1.21836e-07
-1.21836e-07
1.4034e-07
0.000108747
-1.55425e-07
8.4568e-08
0.000125439
-1.81511e-07
-1.75321e-13
0.000134333
-1.96083e-07
-8.45684e-08
0.000134333
-1.96083e-07
-1.4034e-07
0.000125439
-1.81512e-07
-1.51349e-07
0.000108747
-1.55426e-07
8.63735e-05
-1.21836e-07
-1.21836e-07
7.90334e-08
7.90349e-08
8.63467e-05
-6.56226e-08
-6.56228e-08
7.18499e-08
1.04054e-07
0.000108733
-8.28798e-08
4.28784e-08
1.23074e-07
0.000125441
-9.59208e-08
6.42871e-13
1.33331e-07
0.000134345
-1.03102e-07
-4.28771e-08
1.33331e-07
0.000134345
-1.03102e-07
-7.18489e-08
1.23074e-07
0.000125441
-9.59204e-08
-7.90328e-08
1.04053e-07
0.000108733
-8.28791e-08
7.90341e-08
8.63467e-05
-6.56226e-08
-6.56225e-08
1.04052e-07
7.18517e-08
0.000108733
-8.28784e-08
9.64213e-08
9.64234e-08
0.000136165
5.78785e-08
1.15182e-07
0.000155409
5.83029e-13
1.24754e-07
0.000165311
-5.78775e-08
1.24754e-07
0.000165311
-9.64206e-08
1.15181e-07
0.000155409
-1.04052e-07
9.64229e-08
0.000136165
7.1851e-08
0.000108733
-8.28793e-08
1.23072e-07
4.28802e-08
0.000125441
-9.59192e-08
1.1518e-07
5.78806e-08
0.000155409
6.94191e-08
6.9421e-08
0.000175927
4.26835e-13
7.49054e-08
0.000186204
-6.94183e-08
7.49054e-08
0.000186204
-1.15179e-07
6.94207e-08
0.000175927
-1.23072e-07
5.78802e-08
0.000155409
4.28796e-08
0.000125441
-9.59203e-08
1.33329e-07
2.34692e-12
0.000134345
-1.031e-07
1.24753e-07
2.53606e-12
0.000165311
7.49037e-08
2.22783e-12
0.000186204
3.02815e-13
1.93355e-12
0.000196281
-7.49032e-08
1.85774e-12
0.000196281
-1.24752e-07
1.99574e-12
0.000186204
-1.33329e-07
2.16436e-12
0.000165311
1.92684e-12
0.000134345
-1.03102e-07
1.33329e-07
-4.28756e-08
0.000134345
-1.03101e-07
1.24753e-07
-5.78757e-08
0.000165311
7.49037e-08
-6.94166e-08
0.000186204
2.28653e-13
-7.49015e-08
0.000196281
-7.49033e-08
-7.49016e-08
0.000196281
-1.24752e-07
-6.94168e-08
0.000186204
-1.33329e-07
-5.7876e-08
0.000165311
-4.28758e-08
0.000134345
-1.03102e-07
1.23072e-07
-7.18474e-08
0.000125441
-9.59192e-08
1.1518e-07
-9.64188e-08
0.000155409
6.9419e-08
-1.15177e-07
0.000175927
1.83125e-13
-1.24751e-07
0.000186204
-6.94186e-08
-1.24751e-07
0.000186204
-1.15179e-07
-1.15178e-07
0.000175927
-1.23072e-07
-9.6419e-08
0.000155409
-7.18476e-08
0.000125441
-9.59203e-08
1.04052e-07
-7.90315e-08
0.000108733
-8.28781e-08
9.64212e-08
-1.0405e-07
0.000136165
5.78783e-08
-1.2307e-07
0.000155409
1.42643e-13
-1.33327e-07
0.000165311
-5.7878e-08
-1.33327e-07
0.000165311
-9.6421e-08
-1.23071e-07
0.000155409
-1.04052e-07
-1.0405e-07
0.000136165
-7.90315e-08
0.000108733
-8.28789e-08
7.90329e-08
8.63467e-05
-6.56217e-08
-6.56213e-08
7.18495e-08
0.000108733
-8.28776e-08
4.28779e-08
0.000125441
-9.59186e-08
9.12162e-14
0.000134345
-1.031e-07
-4.28778e-08
0.000134345
-1.031e-07
-7.18494e-08
0.000125441
-9.59189e-08
-7.90327e-08
0.000108733
-8.2878e-08
8.63467e-05
-6.56217e-08
-6.5622e-08
3.8081e-08
3.80828e-08
8.63326e-05
-3.10251e-08
-3.10249e-08
3.50235e-08
5.06171e-08
0.000108725
-3.94628e-08
2.10081e-08
6.01991e-08
0.000125441
-4.59526e-08
3.30291e-13
6.53714e-08
0.00013435
-4.9558e-08
-2.10074e-08
6.53713e-08
0.00013435
-4.95579e-08
-3.5023e-08
6.01988e-08
0.000125441
-4.59523e-08
-3.80808e-08
5.06167e-08
0.000108725
-3.94622e-08
3.80824e-08
8.63326e-05
-3.10253e-08
-3.10247e-08
5.06146e-08
3.50257e-08
0.000108725
-3.94609e-08
4.73939e-08
4.73965e-08
0.000136171
2.85617e-08
5.68269e-08
0.000155432
2.98381e-13
6.16255e-08
0.000165344
-2.85612e-08
6.16254e-08
0.000165344
-4.73936e-08
5.68267e-08
0.000155432
-5.06147e-08
4.73961e-08
0.000136171
3.50254e-08
0.000108725
-3.94619e-08
6.01966e-08
2.10102e-08
0.000125441
-4.59503e-08
5.68245e-08
2.8564e-08
0.000155432
3.43454e-08
3.43476e-08
0.000175971
1.90461e-13
3.70871e-08
0.000186263
-3.43451e-08
3.7087e-08
0.000186263
-5.68243e-08
3.43474e-08
0.000175971
-6.01967e-08
2.85638e-08
0.000155432
2.101e-08
0.000125441
-4.59512e-08
6.53691e-08
2.12175e-12
0.00013435
-4.95557e-08
6.16233e-08
2.36308e-12
0.000165344
3.70851e-08
2.12369e-12
0.000186263
1.14545e-13
1.88521e-12
0.000196355
-3.70849e-08
1.83742e-12
0.000196355
-6.16232e-08
1.99848e-12
0.000186263
-6.53691e-08
2.18095e-12
0.000165344
1.96611e-12
0.00013435
-4.95565e-08
6.53692e-08
-2.1006e-08
0.00013435
-4.95558e-08
6.16234e-08
-2.85594e-08
0.000165344
3.70851e-08
-3.43434e-08
0.000186263
6.75393e-14
-3.70833e-08
0.000196355
-3.7085e-08
-3.70833e-08
0.000196355
-6.16233e-08
-3.43435e-08
0.000186263
-6.53692e-08
-2.85596e-08
0.000165344
-2.10062e-08
0.00013435
-4.95565e-08
6.01969e-08
-3.50218e-08
0.000125441
-4.59506e-08
5.68246e-08
-4.7392e-08
0.000155432
3.43455e-08
-5.68228e-08
0.000175971
4.5082e-14
-6.16217e-08
0.000186263
-3.43454e-08
-6.16217e-08
0.000186263
-5.68246e-08
-5.68229e-08
0.000175971
-6.01968e-08
-4.73922e-08
0.000155432
-3.5022e-08
0.000125441
-4.5951e-08
5.06148e-08
-3.80796e-08
0.000108725
-3.94609e-08
4.73941e-08
-5.06132e-08
0.000136171
2.85617e-08
-6.01953e-08
0.000155432
2.40977e-14
-6.53678e-08
0.000165344
-2.85616e-08
-6.53679e-08
0.000165344
-4.7394e-08
-6.01955e-08
0.000155432
-5.06147e-08
-5.06135e-08
0.000136171
-3.80799e-08
0.000108725
-3.94613e-08
3.80809e-08
8.63326e-05
-3.10239e-08
-3.10238e-08
3.50235e-08
0.000108725
-3.94603e-08
2.1008e-08
0.000125441
-4.595e-08
-1.14522e-14
0.00013435
-4.95555e-08
-2.1008e-08
0.00013435
-4.95556e-08
-3.50235e-08
0.000125441
-4.59503e-08
-3.80808e-08
0.000108725
-3.94608e-08
8.63326e-05
-3.10243e-08
-3.10242e-08
1.96299e-08
1.96315e-08
8.63257e-05
-1.61664e-08
-1.61664e-08
1.79432e-08
2.59696e-08
0.000108722
-2.0488e-08
1.07365e-08
3.08018e-08
0.000125441
-2.37795e-08
9.93315e-13
3.34045e-08
0.000134353
-2.55973e-08
-1.07346e-08
3.34042e-08
0.000134353
-2.5597e-08
-1.79417e-08
3.08011e-08
0.000125441
-2.37787e-08
-1.96288e-08
2.59684e-08
0.000108722
-2.04867e-08
1.96304e-08
8.63257e-05
-1.61659e-08
-1.61657e-08
2.59673e-08
1.79451e-08
0.000108722
-2.04862e-08
2.41871e-08
2.41894e-08
0.000136175
1.4548e-08
2.89468e-08
0.000155443
8.56695e-13
3.13607e-08
0.00016536
-1.45464e-08
3.13606e-08
0.00016536
-2.41859e-08
2.89463e-08
0.000155443
-2.59666e-08
2.41885e-08
0.000136175
1.79441e-08
0.000108722
-2.04866e-08
3.07995e-08
1.07383e-08
0.000125441
-2.37774e-08
2.89446e-08
1.45501e-08
0.000155443
1.74638e-08
1.74657e-08
0.000175994
5.90422e-13
1.88403e-08
0.000186293
-1.74627e-08
1.88402e-08
0.000186293
-2.89439e-08
1.74653e-08
0.000175994
-3.07992e-08
1.45494e-08
0.000155443
1.07374e-08
0.000125441
-2.37782e-08
3.34023e-08
2.61749e-12
0.000134353
-2.55953e-08
3.13588e-08
2.75938e-12
0.00016536
1.88385e-08
2.36548e-12
0.000186293
3.93444e-13
2.00578e-12
0.000196393
-1.88378e-08
1.88959e-12
0.000196393
-3.13583e-08
2.0055e-12
0.000186293
-3.34022e-08
2.14767e-12
0.00016536
1.89391e-12
0.000134353
-2.55962e-08
3.34023e-08
-1.07331e-08
0.000134353
-2.55953e-08
3.13587e-08
-1.45447e-08
0.00016536
1.88385e-08
-1.74611e-08
0.000186293
2.7807e-13
-1.88363e-08
0.000196393
-1.8838e-08
-1.88364e-08
0.000196393
-3.13584e-08
-1.74614e-08
0.000186293
-3.34023e-08
-1.45452e-08
0.00016536
-1.07337e-08
0.000134353
-2.55963e-08
3.07994e-08
-1.79404e-08
0.000125441
-2.37773e-08
2.89445e-08
-2.41843e-08
0.000155443
1.74635e-08
-2.89422e-08
0.000175994
2.12558e-13
-3.13567e-08
0.000186293
-1.74632e-08
-3.13567e-08
0.000186293
-2.89443e-08
-2.89425e-08
0.000175994
-3.07994e-08
-2.41846e-08
0.000155443
-1.79406e-08
0.000125441
-2.37783e-08
2.59668e-08
-1.96276e-08
0.000108722
-2.04855e-08
2.41867e-08
-2.5965e-08
0.000136175
1.45474e-08
-3.07976e-08
0.000155443
1.54435e-13
-3.34006e-08
0.00016536
-1.45472e-08
-3.34007e-08
0.00016536
-2.41866e-08
-3.07978e-08
0.000155443
-2.59668e-08
-2.59653e-08
0.000136175
-1.96278e-08
0.000108722
-2.04863e-08
1.96291e-08
8.63257e-05
-1.6165e-08
-1.61646e-08
1.79425e-08
0.000108722
-2.0485e-08
1.07357e-08
0.000125441
-2.37767e-08
9.24786e-14
0.000134353
-2.55947e-08
-1.07355e-08
0.000134353
-2.55948e-08
-1.79424e-08
0.000125441
-2.37769e-08
-1.96289e-08
0.000108722
-2.04855e-08
8.63257e-05
-1.61649e-08
-1.61653e-08
9.77427e-09
9.77564e-09
8.63221e-05
-7.98489e-09
-7.98465e-09
8.98205e-09
1.2983e-08
0.00010872
-1.01458e-08
5.38874e-09
1.54381e-08
0.000125441
-1.18035e-08
-1.90072e-14
1.67635e-08
0.000134355
-1.27225e-08
-5.38875e-09
1.67635e-08
0.000134355
-1.27225e-08
-8.98215e-09
1.54381e-08
0.000125441
-1.18034e-08
-9.77446e-09
1.29829e-08
0.00010872
-1.01456e-08
9.77563e-09
8.63221e-05
-7.9853e-09
-7.98477e-09
1.29811e-08
8.98395e-09
0.00010872
-1.01445e-08
1.21564e-08
1.21586e-08
0.000136177
7.33102e-09
1.45849e-08
0.000155449
-2.91296e-14
1.5819e-08
0.000165369
-7.33113e-09
1.5819e-08
0.000165369
-1.21566e-08
1.45848e-08
0.000155449
-1.29815e-08
1.21585e-08
0.000136177
8.98393e-09
0.00010872
-1.01455e-08
1.54362e-08
5.39067e-09
0.000125441
-1.18018e-08
1.45829e-08
7.33316e-09
0.000155449
8.82148e-09
8.82343e-09
0.000176006
-8.08308e-14
9.52838e-09
0.000186308
-8.82166e-09
9.52836e-09
0.000186308
-1.45832e-08
8.82336e-09