/*--------------------------------*- C++ -*----------------------------------*\
| =========                 |                                                 |
| \\      /  F ield         | OpenFOAM: The Open Source CFD Toolbox           |
|  \\    /   O peration     | Version:  2406                                  |
|   \\  /    A nd           | Website:  www.openfoam.com                      |
|    \\/     M anipulation  |                                                 |
\*---------------------------------------------------------------------------*/
FoamFile
{
    version     2.0;
    format      ascii;
    arch        "LSB;label=32;scalar=64";
    class       surfaceScalarField;
    location    "2.7";
    object      phi;
}
// * * * * * * * * * * * * * * * * * * * * * * * * * * * * * * * * * * * * * //

dimensions      [0 3 -1 0 0 0 0];

oriented        oriented;

internalField   nonuniform List<scalar> 
46880
(
5.70227e-05
5.70227e-05
9.25627e-05
-6.58089e-05
-6.58089e-05
4.14847e-05
5.85524e-05
0.000107332
-6.81955e-05
2.17749e-05
5.89973e-05
0.000116854
-6.9121e-05
1.8255e-13
5.91027e-05
0.000121561
-6.94051e-05
-2.17749e-05
5.91027e-05
0.000121561
-6.94051e-05
-4.14847e-05
5.89973e-05
0.000116854
-6.9121e-05
-5.70227e-05
5.85524e-05
0.000107332
-6.81955e-05
5.70227e-05
9.25627e-05
-6.58089e-05
-6.58089e-05
5.85524e-05
4.14847e-05
0.000107332
-6.81955e-05
4.20291e-05
4.20291e-05
0.000121733
2.18254e-05
4.20503e-05
0.000130284
1.84158e-13
4.1986e-05
0.000134326
-2.18254e-05
4.1986e-05
0.000134326
-4.20291e-05
4.20503e-05
0.000130284
-5.85524e-05
4.20291e-05
0.000121733
4.14847e-05
0.000107332
-6.81955e-05
5.89973e-05
2.17749e-05
0.000116854
-6.9121e-05
4.20503e-05
2.18254e-05
0.000130284
2.17158e-05
2.17158e-05
0.000137965
1.48907e-13
2.16254e-05
0.00014148
-2.17158e-05
2.16254e-05
0.00014148
-4.20503e-05
2.17158e-05
0.000137965
-5.89973e-05
2.18254e-05
0.000130284
2.17749e-05
0.000116854
-6.9121e-05
5.91027e-05
8.48601e-13
0.000121561
-6.94051e-05
4.1986e-05
1.03501e-12
0.000134326
2.16254e-05
1.00749e-12
0.00014148
1.20985e-13
9.86169e-13
0.000144691
-2.16254e-05
9.56603e-13
0.000144691
-4.1986e-05
9.25567e-13
0.00014148
-5.91027e-05
9.34183e-13
0.000134326
7.67861e-13
0.000121561
-6.94051e-05
5.91027e-05
-2.17749e-05
0.000121561
-6.94051e-05
4.1986e-05
-2.18254e-05
0.000134326
2.16254e-05
-2.17158e-05
0.00014148
9.17291e-14
-2.16254e-05
0.000144691
-2.16254e-05
-2.16254e-05
0.000144691
-4.1986e-05
-2.17158e-05
0.00014148
-5.91027e-05
-2.18254e-05
0.000134326
-2.17749e-05
0.000121561
-6.94051e-05
5.89973e-05
-4.14846e-05
0.000116854
-6.9121e-05
4.20503e-05
-4.20291e-05
0.000130284
2.17158e-05
-4.20503e-05
0.000137965
5.42239e-14
-4.1986e-05
0.00014148
-2.17158e-05
-4.1986e-05
0.00014148
-4.20503e-05
-4.20503e-05
0.000137965
-5.89973e-05
-4.20291e-05
0.000130284
-4.14846e-05
0.000116854
-6.9121e-05
5.85524e-05
-5.70227e-05
0.000107332
-6.81955e-05
4.20291e-05
-5.85524e-05
0.000121733
2.18254e-05
-5.89973e-05
0.000130284
1.97573e-14
-5.91027e-05
0.000134326
-2.18254e-05
-5.91027e-05
0.000134326
-4.20291e-05
-5.89973e-05
0.000130284
-5.85524e-05
-5.85524e-05
0.000121733
-5.70227e-05
0.000107332
-6.81955e-05
5.70227e-05
9.25627e-05
-6.58089e-05
-6.58089e-05
4.14847e-05
0.000107332
-6.81955e-05
2.17749e-05
0.000116854
-6.9121e-05
-6.25909e-15
0.000121561
-6.94051e-05
-2.17749e-05
0.000121561
-6.94051e-05
-4.14847e-05
0.000116854
-6.9121e-05
-5.70227e-05
0.000107332
-6.81955e-05
9.25627e-05
-6.58089e-05
-6.58089e-05
2.12981e-05
2.12981e-05
9.11553e-05
-2.05944e-05
-2.05944e-05
1.7387e-05
2.43165e-05
0.000110076
-2.31488e-05
9.64834e-06
2.60548e-05
0.000123205
-2.46671e-05
1.18213e-13
2.68715e-05
0.000129837
-2.54995e-05
-9.64834e-06
2.68715e-05
0.000129837
-2.54995e-05
-1.7387e-05
2.60548e-05
0.000123205
-2.46671e-05
-2.12981e-05
2.43165e-05
0.000110076
-2.31488e-05
2.12981e-05
9.11553e-05
-2.05944e-05
-2.05944e-05
2.43165e-05
1.7387e-05
0.000110076
-2.31488e-05
1.97648e-05
1.97648e-05
0.000130836
1.0936e-05
2.11179e-05
0.00014405
1.02937e-13
2.17195e-05
0.000150414
-1.0936e-05
2.17195e-05
0.000150414
-1.97648e-05
2.11179e-05
0.00014405
-2.43165e-05
1.97648e-05
0.000130836
1.7387e-05
0.000110076
-2.31488e-05
2.60548e-05
9.64834e-06
0.000123205
-2.46671e-05
2.11179e-05
1.0936e-05
0.00014405
1.1672e-05
1.1672e-05
0.000156857
6.62502e-14
1.19938e-05
0.000162878
-1.1672e-05
1.19938e-05
0.000162878
-2.11179e-05
1.1672e-05
0.000156857
-2.60548e-05
1.0936e-05
0.00014405
9.64834e-06
0.000123205
-2.46671e-05
2.68715e-05
7.23984e-13
0.000129837
-2.54995e-05
2.17195e-05
8.24355e-13
0.000150414
1.19938e-05
7.76063e-13
0.000162878
3.98875e-14
7.57095e-13
0.000168678
-1.19938e-05
7.32099e-13
0.000168678
-2.17195e-05
7.10506e-13
0.000162878
-2.68715e-05
7.48111e-13
0.000150414
6.68466e-13
0.000129837
-2.54995e-05
2.68715e-05
-9.64834e-06
0.000129837
-2.54995e-05
2.17195e-05
-1.0936e-05
0.000150414
1.19938e-05
-1.1672e-05
0.000162878
1.64506e-14
-1.19938e-05
0.000168678
-1.19938e-05
-1.19938e-05
0.000168678
-2.17195e-05
-1.1672e-05
0.000162878
-2.68715e-05
-1.0936e-05
0.000150414
-9.64834e-06
0.000129837
-2.54995e-05
2.60548e-05
-1.7387e-05
0.000123205
-2.46671e-05
2.11179e-05
-1.97648e-05
0.00014405
1.1672e-05
-2.11179e-05
0.000156857
-1.60703e-14
-2.17195e-05
0.000162878
-1.1672e-05
-2.17195e-05
0.000162878
-2.11179e-05
-2.11179e-05
0.000156857
-2.60548e-05
-1.97648e-05
0.00014405
-1.7387e-05
0.000123205
-2.46671e-05
2.43165e-05
-2.12981e-05
0.000110076
-2.31488e-05
1.97648e-05
-2.43165e-05
0.000130836
1.0936e-05
-2.60548e-05
0.00014405
-4.86787e-14
-2.68715e-05
0.000150414
-1.0936e-05
-2.68715e-05
0.000150414
-1.97648e-05
-2.60548e-05
0.00014405
-2.43165e-05
-2.43165e-05
0.000130836
-2.12981e-05
0.000110076
-2.31488e-05
2.12981e-05
9.11553e-05
-2.05944e-05
-2.05944e-05
1.7387e-05
0.000110076
-2.31488e-05
9.64834e-06
0.000123205
-2.46671e-05
-6.9149e-14
0.000129837
-2.54995e-05
-9.64834e-06
0.000129837
-2.54995e-05
-1.7387e-05
0.000123205
-2.46671e-05
-2.12981e-05
0.000110076
-2.31488e-05
9.11553e-05
-2.05944e-05
-2.05944e-05
1.18127e-05
1.18127e-05
8.91259e-05
-1.0798e-05
-1.0798e-05
9.90265e-06
1.43956e-05
0.000110627
-1.30364e-05
5.62154e-06
1.59718e-05
0.000125963
-1.44489e-05
1.94679e-13
1.67467e-05
0.000133897
-1.51853e-05
-5.62154e-06
1.67467e-05
0.000133897
-1.51853e-05
-9.90265e-06
1.59718e-05
0.000125963
-1.44489e-05
-1.18127e-05
1.43956e-05
0.000110627
-1.30364e-05
1.18127e-05
8.91259e-05
-1.0798e-05
-1.0798e-05
1.43956e-05
9.90265e-06
0.000110627
-1.30364e-05
1.20477e-05
1.20477e-05
0.000135532
6.80902e-06
1.33212e-05
0.000151939
1.47912e-13
1.39201e-05
0.00016005
-6.80902e-06
1.39201e-05
0.00016005
-1.20477e-05
1.33212e-05
0.000151939
-1.43956e-05
1.20477e-05
0.000135532
9.90265e-06
0.000110627
-1.30364e-05
1.59718e-05
5.62155e-06
0.000125963
-1.44489e-05
1.33212e-05
6.80902e-06
0.000151939
7.49972e-06
7.49972e-06
0.0001685
7.99614e-14
7.81056e-06
0.000176487
-7.49972e-06
7.81056e-06
0.000176487
-1.33212e-05
7.49972e-06
0.0001685
-1.59718e-05
6.80902e-06
0.000151939
5.62155e-06
0.000125963
-1.44489e-05
1.67467e-05
8.67937e-13
0.000133897
-1.51853e-05
1.39201e-05
9.25741e-13
0.00016005
7.81056e-06
7.99792e-13
0.000176487
3.71881e-14
7.2722e-13
0.000184299
-7.81056e-06
6.94331e-13
0.000184299
-1.39201e-05
7.03343e-13
0.000176487
-1.67467e-05
7.87356e-13
0.00016005
7.2584e-13
0.000133897
-1.51853e-05
1.67467e-05
-5.62154e-06
0.000133897
-1.51853e-05
1.39201e-05
-6.80902e-06
0.00016005
7.81056e-06
-7.49972e-06
0.000176487
5.17331e-15
-7.81055e-06
0.000184299
-7.81056e-06
-7.81055e-06
0.000184299
-1.39201e-05
-7.49972e-06
0.000176487
-1.67467e-05
-6.80902e-06
0.00016005
-5.62154e-06
0.000133897
-1.51853e-05
1.59718e-05
-9.90265e-06
0.000125963
-1.44489e-05
1.33212e-05
-1.20476e-05
0.000151939
7.49972e-06
-1.33212e-05
0.0001685
-3.14984e-14
-1.39201e-05
0.000176487
-7.49972e-06
-1.39201e-05
0.000176487
-1.33212e-05
-1.33212e-05
0.0001685
-1.59718e-05
-1.20476e-05
0.000151939
-9.90265e-06
0.000125963
-1.44489e-05
1.43956e-05
-1.18127e-05
0.000110627
-1.30364e-05
1.20477e-05
-1.43956e-05
0.000135532
6.80902e-06
-1.59718e-05
0.000151939
-6.68994e-14
-1.67467e-05
0.00016005
-6.80902e-06
-1.67467e-05
0.00016005
-1.20477e-05
-1.59718e-05
0.000151939
-1.43956e-05
-1.43956e-05
0.000135532
-1.18127e-05
0.000110627
-1.30364e-05
1.18127e-05
8.91259e-05
-1.0798e-05
-1.0798e-05
9.90265e-06
0.000110627
-1.30364e-05
5.62154e-06
0.000125963
-1.44489e-05
-8.61933e-14
0.000133897
-1.51853e-05
-5.62154e-06
0.000133897
-1.51853e-05
-9.90265e-06
0.000125963
-1.44489e-05
-1.18127e-05
0.000110627
-1.30364e-05
8.91259e-05
-1.0798e-05
-1.0798e-05
2.98521e-06
2.98521e-06
8.73785e-05
-2.11152e-06
-2.11152e-06
2.93654e-06
4.20871e-06
0.000109321
-2.85467e-06
1.80601e-06
5.10333e-06
0.000125443
-3.45295e-06
5.96187e-14
5.56796e-06
0.000133927
-3.79171e-06
-1.80601e-06
5.56796e-06
0.000133927
-3.79171e-06
-2.93654e-06
5.10333e-06
0.000125443
-3.45295e-06
-2.98521e-06
4.20871e-06
0.000109321
-2.85467e-06
2.98521e-06
8.73785e-05
-2.11152e-06
-2.11152e-06
4.20871e-06
2.93654e-06
0.000109321
-2.85467e-06
4.13753e-06
4.13753e-06
0.000135674
2.52404e-06
4.95623e-06
0.000153699
3.57555e-14
5.34154e-06
0.0001628
-2.52404e-06
5.34154e-06
0.0001628
-4.13753e-06
4.95623e-06
0.000153699
-4.20871e-06
4.13753e-06
0.000135674
2.93654e-06
0.000109321
-2.85467e-06
5.10333e-06
1.80601e-06
0.000125443
-3.45295e-06
4.95623e-06
2.52404e-06
0.000153699
2.98743e-06
2.98743e-06
0.000172437
-5.6716e-15
3.17437e-06
0.000181642
-2.98743e-06
3.17437e-06
0.000181642
-4.95623e-06
2.98743e-06
0.000172437
-5.10333e-06
2.52404e-06
0.000153699
1.80601e-06
0.000125443
-3.45295e-06
5.56796e-06
8.52863e-13
0.000133927
-3.79171e-06
5.34154e-06
9.48692e-13
0.0001628
3.17437e-06
8.27297e-13
0.000181642
-3.63815e-14
7.27694e-13
0.000190648
-3.17437e-06
7.04141e-13
0.000190648
-5.34154e-06
7.60979e-13
0.000181642
-5.56796e-06
8.71651e-13
0.0001628
8.05586e-13
0.000133927
-3.79171e-06
5.56796e-06
-1.80601e-06
0.000133927
-3.79171e-06
5.34154e-06
-2.52404e-06
0.0001628
3.17437e-06
-2.98743e-06
0.000181642
-6.02889e-14
-3.17437e-06
0.000190648
-3.17437e-06
-3.17437e-06
0.000190648
-5.34154e-06
-2.98743e-06
0.000181642
-5.56796e-06
-2.52404e-06
0.0001628
-1.80601e-06
0.000133927
-3.79171e-06
5.10333e-06
-2.93654e-06
0.000125443
-3.45295e-06
4.95623e-06
-4.13753e-06
0.000153699
2.98743e-06
-4.95623e-06
0.000172437
-8.638e-14
-5.34154e-06
0.000181642
-2.98743e-06
-5.34154e-06
0.000181642
-4.95623e-06
-4.95623e-06
0.000172437
-5.10333e-06
-4.13753e-06
0.000153699
-2.93654e-06
0.000125443
-3.45295e-06
4.20871e-06
-2.98521e-06
0.000109321
-2.85467e-06
4.13753e-06
-4.20871e-06
0.000135674
2.52404e-06
-5.10333e-06
0.000153699
-1.2166e-13
-5.56796e-06
0.0001628
-2.52404e-06
-5.56796e-06
0.0001628
-4.13753e-06
-5.10333e-06
0.000153699
-4.20871e-06
-4.20871e-06
0.000135674
-2.98521e-06
0.000109321
-2.85467e-06
2.98521e-06
8.73785e-05
-2.11152e-06
-2.11152e-06
2.93654e-06
0.000109321
-2.85467e-06
1.80601e-06
0.000125443
-3.45295e-06
-1.38996e-13
0.000133927
-3.79171e-06
-1.80601e-06
0.000133927
-3.79171e-06
-2.93654e-06
0.000125443
-3.45295e-06
-2.98521e-06
0.000109321
-2.85467e-06
8.73785e-05
-2.11152e-06
-2.11152e-06
1.75855e-06
1.75855e-06
8.68359e-05
-1.48727e-06
-1.48727e-06
1.58507e-06
2.31764e-06
0.000109058
-1.88066e-06
9.44341e-07
2.7317e-06
0.000125519
-2.1672e-06
2.94791e-13
2.94525e-06
0.000134245
-2.31887e-06
-9.4434e-07
2.94525e-06
0.000134245
-2.31887e-06
-1.58507e-06
2.7317e-06
0.000125519
-2.1672e-06
-1.75855e-06
2.31764e-06
0.000109058
-1.88066e-06
1.75855e-06
8.68359e-05
-1.48727e-06
-1.48727e-06
2.31763e-06
1.58508e-06
0.000109058
-1.88066e-06
2.13338e-06
2.13339e-06
0.000136043
1.27625e-06
2.52941e-06
0.000154759
2.42732e-13
2.71285e-06
0.000164309
-1.27625e-06
2.71285e-06
0.000164309
-2.13338e-06
2.52941e-06
0.000154759
-2.31763e-06
2.13339e-06
0.000136043
1.58507e-06
0.000109058
-1.88066e-06
2.7317e-06
9.44342e-07
0.000125519
-2.1672e-06
2.52941e-06
1.27625e-06
0.000154759
1.50567e-06
1.50567e-06
0.000174485
1.50215e-13
1.58998e-06
0.00018427
-1.50567e-06
1.58998e-06
0.00018427
-2.52941e-06
1.50567e-06
0.000174485
-2.7317e-06
1.27625e-06
0.000154759
9.44342e-07
0.000125519
-2.1672e-06
2.94525e-06
1.13747e-12
0.000134245
-2.31887e-06
2.71285e-06
1.22999e-12
0.000164309
1.58997e-06
1.0543e-12
0.00018427
8.28494e-14
8.95751e-13
0.000193828
-1.58997e-06
8.56621e-13
0.000193828
-2.71285e-06
9.36423e-13
0.00018427
-2.94525e-06
1.05556e-12
0.000164309
9.57581e-13
0.000134245
-2.31887e-06
2.94525e-06
-9.4434e-07
0.000134245
-2.31887e-06
2.71285e-06
-1.27624e-06
0.000164309
1.58997e-06
-1.50567e-06
0.00018427
4.48096e-14
-1.58997e-06
0.000193828
-1.58997e-06
-1.58997e-06
0.000193828
-2.71285e-06
-1.50567e-06
0.00018427
-2.94525e-06
-1.27624e-06
0.000164309
-9.4434e-07
0.000134245
-2.31887e-06
2.7317e-06
-1.58507e-06
0.000125519
-2.1672e-06
2.52941e-06
-2.13338e-06
0.000154759
1.50567e-06
-2.52941e-06
0.000174485
1.79276e-14
-2.71285e-06
0.00018427
-1.50567e-06
-2.71285e-06
0.00018427
-2.52941e-06
-2.52941e-06
0.000174485
-2.7317e-06
-2.13338e-06
0.000154759
-1.58507e-06
0.000125519
-2.1672e-06
2.31763e-06
-1.75855e-06
0.000109058
-1.88066e-06
2.13338e-06
-2.31763e-06
0.000136043
1.27625e-06
-2.73169e-06
0.000154759
-1.12945e-14
-2.94525e-06
0.000164309
-1.27625e-06
-2.94525e-06
0.000164309
-2.13338e-06
-2.73169e-06
0.000154759
-2.31763e-06
-2.31763e-06
0.000136043
-1.75855e-06
0.000109058
-1.88066e-06
1.75855e-06
8.68359e-05
-1.48727e-06
-1.48727e-06
1.58507e-06
0.000109058
-1.88066e-06
9.44341e-07
0.000125519
-2.1672e-06
-3.37461e-14
0.000134245
-2.31887e-06
-9.44341e-07
0.000134245
-2.31887e-06
-1.58507e-06
0.000125519
-2.1672e-06
-1.75855e-06
0.000109058
-1.88066e-06
8.68359e-05
-1.48727e-06
-1.48727e-06
6.09094e-07
6.09094e-07
8.65409e-05
-4.61558e-07
-4.61558e-07
5.88221e-07
8.41815e-07
0.000108839
-6.01562e-07
3.62056e-07
1.02624e-06
0.000125434
-7.14691e-07
2.53058e-15
1.12581e-06
0.00013426
-7.78511e-07
-3.62056e-07
1.12581e-06
0.00013426
-7.7851e-07
-5.88221e-07
1.02624e-06
0.000125434
-7.1469e-07
-6.09094e-07
8.41814e-07
0.000108839
-6.01562e-07
6.09094e-07
8.65409e-05
-4.61558e-07
-4.61558e-07
8.41814e-07
5.88222e-07
0.000108839
-6.01562e-07
8.30744e-07
8.30745e-07
0.000136065
5.13706e-07
1.01887e-06
0.000155083
-1.43857e-14
1.11174e-06
0.000164837
-5.13706e-07
1.11174e-06
0.000164837
-8.30744e-07
1.01887e-06
0.000155083
-8.41814e-07
8.30745e-07
0.000136065
5.88222e-07
0.000108839
-6.01563e-07
1.02624e-06
3.62057e-07
0.000125434
-7.1469e-07
1.01887e-06
5.13708e-07
0.000155083
6.28552e-07
6.28553e-07
0.000175266
-4.49123e-14
6.77036e-07
0.000185334
-6.28552e-07
6.77036e-07
0.000185334
-1.01887e-06
6.28553e-07
0.000175266
-1.02624e-06
5.13708e-07
0.000155083
3.62057e-07
0.000125434
-7.14691e-07
1.12581e-06
1.18688e-12
0.00013426
-7.7851e-07
1.11173e-06
1.3424e-12
0.000164837
6.77035e-07
1.20371e-12
0.000185334
-6.55176e-14
1.06673e-12
0.000195182
-6.77035e-07
1.0504e-12
0.000195182
-1.11173e-06
1.16716e-12
0.000185334
-1.12581e-06
1.31514e-12
0.000164837
1.20688e-12
0.00013426
-7.78511e-07
1.12581e-06
-3.62055e-07
0.00013426
-7.7851e-07
1.11173e-06
-5.13705e-07
0.000164837
6.77035e-07
-6.28551e-07
0.000185334
-8.18633e-14
-6.77034e-07
0.000195182
-6.77035e-07
-6.77034e-07
0.000195182
-1.11173e-06
-6.28551e-07
0.000185334
-1.12581e-06
-5.13705e-07
0.000164837
-3.62055e-07
0.00013426
-7.78511e-07
1.02624e-06
-5.8822e-07
0.000125434
-7.1469e-07
1.01887e-06
-8.30743e-07
0.000155083
6.28552e-07
-1.01887e-06
0.000175266
-9.76173e-14
-1.11173e-06
0.000185334
-6.28552e-07
-1.11173e-06
0.000185334
-1.01887e-06
-1.01887e-06
0.000175266
-1.02624e-06
-8.30743e-07
0.000155083
-5.8822e-07
0.000125434
-7.14691e-07
8.41814e-07
-6.09093e-07
0.000108839
-6.01562e-07
8.30744e-07
-8.41813e-07
0.000136065
5.13706e-07
-1.02624e-06
0.000155083
-1.1932e-13
-1.12581e-06
0.000164837
-5.13707e-07
-1.12581e-06
0.000164837
-8.30744e-07
-1.02624e-06
0.000155083
-8.41814e-07
-8.41813e-07
0.000136065
-6.09093e-07
0.000108839
-6.01562e-07
6.09093e-07
8.65409e-05
-4.61558e-07
-4.61557e-07
5.88221e-07
0.000108839
-6.01561e-07
3.62056e-07
0.000125434
-7.1469e-07
-1.29579e-13
0.00013426
-7.7851e-07
-3.62056e-07
0.00013426
-7.7851e-07
-5.88221e-07
0.000125434
-7.1469e-07
-6.09094e-07
0.000108839
-6.01562e-07
8.65409e-05
-4.61558e-07
-4.61558e-07
3.37042e-07
3.37043e-07
8.64326e-05
-2.8288e-07
-2.8288e-07
3.05727e-07
4.42555e-07
0.000108783
-3.5584e-07
1.8277e-07
5.24016e-07
0.000125443
-4.10568e-07
2.50606e-13
5.67997e-07
0.000134315
-4.40394e-07
-1.8277e-07
5.67997e-07
0.000134315
-4.40394e-07
-3.05727e-07
5.24016e-07
0.000125443
-4.10567e-07
-3.37042e-07
4.42555e-07
0.000108783
-3.5584e-07
3.37042e-07
8.64326e-05
-2.8288e-07
-2.8288e-07
4.42554e-07
3.05729e-07
0.000108783
-3.55839e-07
4.11361e-07
4.11362e-07
0.000136127
2.48164e-07
4.93894e-07
0.000155277
2.07125e-13
5.35806e-07
0.000165117
-2.48163e-07
5.35806e-07
0.000165117
-4.11361e-07
4.93894e-07
0.000155277
-4.42554e-07
4.11362e-07
0.000136127
3.05728e-07
0.000108783
-3.55841e-07
5.24014e-07
1.82772e-07
0.000125443
-4.10567e-07
4.93893e-07
2.48165e-07
0.000155277
2.99349e-07
2.9935e-07
0.000175655
1.2082e-13
3.22832e-07
0.000185846
-2.99349e-07
3.22832e-07
0.000185846
-4.93893e-07
2.9935e-07
0.000175655
-5.24015e-07
2.48165e-07
0.000155277
1.82772e-07
0.000125443
-4.10568e-07
5.67995e-07
1.71753e-12
0.000134315
-4.40393e-07
5.35804e-07
1.86458e-12
0.000165117
3.22831e-07
1.63273e-12
0.000185846
5.90694e-14
1.41765e-12
0.000195828
-3.22831e-07
1.37255e-12
0.000195828
-5.35805e-07
1.50866e-12
0.000185846
-5.67996e-07
1.66484e-12
0.000165117
1.50444e-12
0.000134315
-4.40394e-07
5.67995e-07
-1.82769e-07
0.000134315
-4.40393e-07
5.35805e-07
-2.48162e-07
0.000165117
3.22831e-07
-2.99347e-07
0.000185846
1.62037e-14
-3.22829e-07
0.000195828
-3.22831e-07
-3.22829e-07
0.000195828
-5.35805e-07
-2.99347e-07
0.000185846
-5.67996e-07
-2.48162e-07
0.000165117
-1.82769e-07
0.000134315
-4.40394e-07
5.24014e-07
-3.05726e-07
0.000125443
-4.10567e-07
4.93893e-07
-4.11359e-07
0.000155277
2.99349e-07
-4.93891e-07
0.000175655
-1.61698e-14
-5.35803e-07
0.000185846
-2.99349e-07
-5.35803e-07
0.000185846
-4.93893e-07
-4.93891e-07
0.000175655
-5.24015e-07
-4.11359e-07
0.000155277
-3.05726e-07
0.000125443
-4.10568e-07
4.42554e-07
-3.3704e-07
0.000108783
-3.55839e-07
4.11361e-07
-4.42552e-07
0.000136127
2.48164e-07
-5.24013e-07
0.000155277
-5.81477e-14
-5.67994e-07
0.000165117
-2.48164e-07
-5.67994e-07
0.000165117
-4.11361e-07
-5.24013e-07
0.000155277
-4.42554e-07
-4.42552e-07
0.000136127
-3.3704e-07
0.000108783
-3.5584e-07
3.37041e-07
8.64326e-05
-2.8288e-07
-2.82879e-07
3.05727e-07
0.000108783
-3.55839e-07
1.8277e-07
0.000125443
-4.10566e-07
-7.76422e-14
0.000134315
-4.40392e-07
-1.8277e-07
0.000134315
-4.40393e-07
-3.05727e-07
0.000125443
-4.10566e-07
-3.37041e-07
0.000108783
-3.55839e-07
8.64326e-05
-2.8288e-07
-2.8288e-07
1.51348e-07
1.51349e-07
8.63735e-05
-1.21836e-07
-1.21836e-07
1.40339e-07
2.02145e-07
0.000108747
-1.55426e-07
8.45677e-08
2.41371e-07
0.000125439
-1.81513e-07
-9.19684e-14
2.62704e-07
0.000134333
-1.96084e-07
-8.45679e-08
2.62704e-07
0.000134333
-1.96084e-07
-1.40339e-07
2.41371e-07
0.000125439
-1.81512e-07
-1.51348e-07
2.02145e-07
0.000108747
-1.55426e-07
1.5135e-07
8.63735e-05
-1.21837e-07
-1.21836e-07
2.02143e-07
1.40341e-07
0.000108747
-1.55425e-07
1.91011e-07
1.91013e-07
0.00013615
1.15755e-07
2.30229e-07
0.000155363
-7.59445e-14
2.5041e-07
0.000165245
-1.15755e-07
2.5041e-07
0.000165245
-1.91011e-07
2.30229e-07
0.000155363
-2.02144e-07
1.91013e-07
0.00013615
1.40341e-07
0.000108747
-1.55426e-07
2.41369e-07
8.45696e-08
0.000125439
-1.81511e-07
2.30227e-07
1.15757e-07
0.000155363
1.40054e-07
1.40055e-07
0.000175835
-7.89004e-14
1.51654e-07
0.000186085
-1.40054e-07
1.51654e-07
0.000186085
-2.30228e-07
1.40055e-07
0.000175835
-2.41369e-07
1.15757e-07
0.000155363
8.45697e-08
0.000125439
-1.81512e-07
2.62702e-07
1.63293e-12
0.000134333
-1.96083e-07
2.50408e-07
1.84389e-12
0.000165245
1.51653e-07
1.66693e-12
0.000186085
-7.92057e-14
1.49404e-12
0.000196131
-1.51653e-07
1.48086e-12
0.000196131
-2.50409e-07
1.65527e-12
0.000186085
-2.62702e-07
1.84511e-12
0.000165245
1.68927e-12
0.000134333
-1.96084e-07
2.62702e-07
-8.45664e-08
0.000134333
-1.96083e-07
2.50409e-07
-1.15754e-07
0.000165245
1.51653e-07
-1.40052e-07
0.000186085
-9.19039e-14
-1.51651e-07
0.000196131
-1.51653e-07
-1.51651e-07
0.000196131
-2.50409e-07
-1.40052e-07
0.000186085
-2.62702e-07
-1.15754e-07
0.000165245
-8.45664e-08
0.000134333
-1.96084e-07
2.41369e-07
-1.40338e-07
0.000125439
-1.81511e-07
2.30227e-07
-1.91009e-07
0.000155363
1.40054e-07
-2.30226e-07
0.000175835
-1.03865e-13
-2.50407e-07
0.000186085
-1.40054e-07
-2.50407e-07
0.000186085
-2.30228e-07
-2.30226e-07
0.000175835
-2.41369e-07
-1.9101e-07
0.000155363
-1.40338e-07
0.000125439
-1.81512e-07
2.02143e-07
-1.51347e-07
0.000108747
-1.55425e-07
1.91011e-07
-2.02142e-07
0.00013615
1.15755e-07
-2.41368e-07
0.000155363
-1.34669e-13
-2.62701e-07
0.000165245
-1.15756e-07
-2.62701e-07
0.000165245
-1.91011e-07
-2.41368e-07
0.000155363
-2.02144e-07
-2.02142e-07
0.00013615
-1.51347e-07
0.000108747
-1.55426e-07
1.51348e-07
8.63735e-05
-1.21835e-07
-1.21835e-07
1.40339e-07
0.000108747
-1.55425e-07
8.45678e-08
0.000125439
-1.81511e-07
-1.46858e-13
0.000134333
-1.96083e-07
-8.45681e-08
0.000134333
-1.96083e-07
-1.4034e-07
0.000125439
-1.81511e-07
-1.51348e-07
0.000108747
-1.55425e-07
8.63735e-05
-1.21836e-07
-1.21836e-07
7.90329e-08
7.90343e-08
8.63467e-05
-6.56221e-08
-6.56222e-08
7.18495e-08
1.04053e-07
0.000108733
-8.28791e-08
4.28781e-08
1.23073e-07
0.000125441
-9.59201e-08
6.00337e-13
1.3333e-07
0.000134345
-1.03101e-07
-4.2877e-08
1.3333e-07
0.000134345
-1.03101e-07
-7.18486e-08
1.23073e-07
0.000125441
-9.59196e-08
-7.90323e-08
1.04053e-07
0.000108733
-8.28784e-08
7.90335e-08
8.63467e-05
-6.56221e-08
-6.5622e-08
1.04051e-07
7.18512e-08
0.000108733
-8.28777e-08
9.64208e-08
9.64229e-08
0.000136165
5.78783e-08
1.15181e-07
0.000155409
5.49622e-13
1.24754e-07
0.000165311
-5.78773e-08
1.24754e-07
0.000165311
-9.64201e-08
1.15181e-07
0.000155409
-1.04051e-07
9.64223e-08
0.000136165
7.18506e-08
0.000108733
-8.28785e-08
1.23071e-07
4.28798e-08
0.000125441
-9.59185e-08
1.15179e-07
5.78803e-08
0.000155409
6.94188e-08
6.94206e-08
0.000175927
4.00764e-13
7.49051e-08
0.000186204
-6.94181e-08
7.4905e-08
0.000186204
-1.15179e-07
6.94204e-08
0.000175927
-1.23071e-07
5.78798e-08
0.000155409
4.28793e-08
0.000125441
-9.59194e-08
1.33328e-07
2.21159e-12
0.000134345
-1.031e-07
1.24752e-07
2.38433e-12
0.000165311
7.49034e-08
2.08348e-12
0.000186204
2.83328e-13
1.80282e-12
0.000196281
-7.4903e-08
1.73037e-12
0.000196281
-1.24752e-07
1.8668e-12
0.000186204
-1.33328e-07
2.03216e-12
0.000165311
1.8121e-12
0.000134345
-1.03101e-07
1.33328e-07
-4.28755e-08
0.000134345
-1.031e-07
1.24752e-07
-5.78756e-08
0.000165311
7.49034e-08
-6.94165e-08
0.000186204
2.11733e-13
-7.49015e-08
0.000196281
-7.49031e-08
-7.49015e-08
0.000196281
-1.24752e-07
-6.94167e-08
0.000186204
-1.33328e-07
-5.78759e-08
0.000165311
-4.28758e-08
0.000134345
-1.03101e-07
1.23072e-07
-7.18472e-08
0.000125441
-9.59185e-08
1.15179e-07
-9.64185e-08
0.000155409
6.94187e-08
-1.15177e-07
0.000175927
1.69568e-13
-1.2475e-07
0.000186204
-6.94184e-08
-1.2475e-07
0.000186204
-1.15179e-07
-1.15177e-07
0.000175927
-1.23072e-07
-9.64187e-08
0.000155409
-7.18473e-08
0.000125441
-9.59194e-08
1.04051e-07
-7.90311e-08
0.000108733
-8.28774e-08
9.64207e-08
-1.04049e-07
0.000136165
5.7878e-08
-1.2307e-07
0.000155409
1.31861e-13
-1.33327e-07
0.000165311
-5.78778e-08
-1.33327e-07
0.000165311
-9.64205e-08
-1.2307e-07
0.000155409
-1.04051e-07
-1.0405e-07
0.000136165
-7.90311e-08
0.000108733
-8.28781e-08
7.90324e-08
8.63467e-05
-6.56213e-08
-6.56208e-08
7.18491e-08
0.000108733
-8.2877e-08
4.28777e-08
0.000125441
-9.5918e-08
8.33281e-14
0.000134345
-1.03099e-07
-4.28776e-08
0.000134345
-1.03099e-07
-7.1849e-08
0.000125441
-9.59182e-08
-7.90322e-08
0.000108733
-8.28773e-08
8.63467e-05
-6.56211e-08
-6.56214e-08
3.80805e-08
3.80821e-08
8.63326e-05
-3.10247e-08
-3.10243e-08
3.50231e-08
5.06163e-08
0.000108725
-3.94621e-08
2.10079e-08
6.01983e-08
0.000125441
-4.59518e-08
3.27169e-13
6.53706e-08
0.00013435
-4.95572e-08
-2.10072e-08
6.53705e-08
0.00013435
-4.95571e-08
-3.50227e-08
6.0198e-08
0.000125441
-4.59515e-08
-3.80803e-08
5.06159e-08
0.000108725
-3.94615e-08
3.80818e-08
8.63326e-05
-3.10248e-08
-3.10242e-08
5.0614e-08
3.50252e-08
0.000108725
-3.94604e-08
4.73935e-08
4.73959e-08
0.000136171
2.85615e-08
5.68263e-08
0.000155432
3.06188e-13
6.16249e-08
0.000165344
-2.85609e-08
6.16248e-08
0.000165344
-4.73932e-08
5.68261e-08
0.000155432
-5.06141e-08
4.73956e-08
0.000136171
3.5025e-08
0.000108725
-3.94612e-08
6.0196e-08
2.10099e-08
0.000125441
-4.59497e-08
5.6824e-08
2.85637e-08
0.000155432
3.43452e-08
3.43472e-08
0.000175971
2.01154e-13
3.70867e-08
0.000186263
-3.43448e-08
3.70867e-08
0.000186263
-5.68239e-08
3.43471e-08
0.000175971
-6.01961e-08
2.85635e-08
0.000155432
2.10097e-08
0.000125441
-4.59504e-08
6.53684e-08
2.01092e-12
0.00013435
-4.95551e-08
6.16228e-08
2.23349e-12
0.000165344
3.70849e-08
1.99297e-12
0.000186263
1.26576e-13
1.76025e-12
0.000196355
-3.70847e-08
1.71239e-12
0.000196355
-6.16227e-08
1.871e-12
0.000186263
-6.53685e-08
2.04956e-12
0.000165344
1.85264e-12
0.00013435
-4.95557e-08
6.53685e-08
-2.10059e-08
0.00013435
-4.95552e-08
6.16229e-08
-2.85593e-08
0.000165344
3.70849e-08
-3.43433e-08
0.000186263
7.87519e-14
-3.70832e-08
0.000196355
-3.70848e-08
-3.70832e-08
0.000196355
-6.16228e-08
-3.43434e-08
0.000186263
-6.53685e-08
-2.85595e-08
0.000165344
-2.10061e-08
0.00013435
-4.95557e-08
6.01962e-08
-3.50216e-08
0.000125441
-4.59499e-08
5.68242e-08
-4.73917e-08
0.000155432
3.43452e-08
-5.68225e-08
0.000175971
5.6403e-14
-6.16214e-08
0.000186263
-3.43451e-08
-6.16214e-08
0.000186263
-5.68241e-08
-5.68226e-08
0.000175971
-6.01962e-08
-4.73919e-08
0.000155432
-3.50217e-08
0.000125441
-4.59503e-08
5.06142e-08
-3.80792e-08
0.000108725
-3.94603e-08
4.73936e-08
-5.06127e-08
0.000136171
2.85614e-08
-6.01948e-08
0.000155432
3.59364e-14
-6.53673e-08
0.000165344
-2.85614e-08
-6.53673e-08
0.000165344
-4.73936e-08
-6.0195e-08
0.000155432
-5.06141e-08
-5.0613e-08
0.000136171
-3.80795e-08
0.000108725
-3.94606e-08
3.80804e-08
8.63326e-05
-3.10235e-08
-3.10234e-08
3.50232e-08
0.000108725
-3.94598e-08
2.10078e-08
0.000125441
-4.59494e-08
-1.45381e-15
0.00013435
-4.95548e-08
-2.10078e-08
0.00013435
-4.95549e-08
-3.50232e-08
0.000125441
-4.59496e-08
-3.80803e-08
0.000108725
-3.94602e-08
8.63326e-05
-3.10238e-08
-3.10237e-08
1.96294e-08
1.9631e-08
8.63257e-05
-1.61659e-08
-1.61659e-08
1.79428e-08
2.59689e-08
0.000108722
-2.04873e-08
1.07362e-08
3.08011e-08
0.000125441
-2.37787e-08
9.49931e-13
3.34037e-08
0.000134353
-2.55965e-08
-1.07344e-08
3.34035e-08
0.000134353
-2.55963e-08
-1.79413e-08
3.08004e-08
0.000125441
-2.3778e-08
-1.96284e-08
2.59677e-08
0.000108722
-2.0486e-08
1.96298e-08
8.63257e-05
-1.61654e-08
-1.61652e-08
2.59667e-08
1.79446e-08
0.000108722
-2.04856e-08
2.41867e-08
2.41889e-08
0.000136175
1.45477e-08
2.89462e-08
0.000155443
8.27006e-13
3.13601e-08
0.00016536
-1.45462e-08
3.136e-08
0.00016536
-2.41855e-08
2.89457e-08
0.000155443
-2.5966e-08
2.4188e-08
0.000136175
1.79436e-08
0.000108722
-2.04859e-08
3.07989e-08
1.07379e-08
0.000125441
-2.37768e-08
2.89442e-08
1.45497e-08
0.000155443
1.74635e-08
1.74654e-08
0.000175994
5.68252e-13
1.884e-08
0.000186293
-1.74625e-08
1.88398e-08
0.000186293
-2.89434e-08
1.7465e-08
0.000175994
-3.07985e-08
1.4549e-08
0.000155443
1.07371e-08
0.000125441
-2.37774e-08
3.34017e-08
2.4802e-12
0.000134353
-2.55947e-08
3.13583e-08
2.60464e-12
0.00016536
1.88383e-08
2.216e-12
0.000186293
3.75932e-13
1.86715e-12
0.000196393
-1.88376e-08
1.75219e-12
0.000196393
-3.13578e-08
1.86616e-12
0.000186293
-3.34015e-08
2.00656e-12
0.00016536
1.77539e-12
0.000134353
-2.55954e-08
3.34017e-08
-1.07331e-08
0.000134353
-2.55947e-08
3.13583e-08
-1.45446e-08
0.00016536
1.88383e-08
-1.7461e-08
0.000186293
2.61087e-13
-1.88362e-08
0.000196393
-1.88378e-08
-1.88363e-08
0.000196393
-3.13579e-08
-1.74613e-08
0.000186293
-3.34016e-08
-1.45451e-08
0.00016536
-1.07336e-08
0.000134353
-2.55955e-08
3.07988e-08
-1.79401e-08
0.000125441
-2.37766e-08
2.8944e-08
-2.4184e-08
0.000155443
1.74633e-08
-2.8942e-08
0.000175994
1.97785e-13
-3.13564e-08
0.000186293
-1.74629e-08
-3.13565e-08
0.000186293
-2.89438e-08
-2.89422e-08
0.000175994
-3.07987e-08
-2.41843e-08
0.000155443
-1.79404e-08
0.000125441
-2.37775e-08
2.59662e-08
-1.96273e-08
0.000108722
-2.04849e-08
2.41863e-08
-2.59645e-08
0.000136175
1.45472e-08
-3.07971e-08
0.000155443
1.41915e-13
-3.34001e-08
0.00016536
-1.4547e-08
-3.34002e-08
0.00016536
-2.41861e-08
-3.07973e-08
0.000155443
-2.59662e-08
-2.59648e-08
0.000136175
-1.96274e-08
0.000108722
-2.04856e-08
1.96286e-08
8.63257e-05
-1.61646e-08
-1.61641e-08
1.79421e-08
0.000108722
-2.04845e-08
1.07355e-08
0.000125441
-2.37761e-08
8.35195e-14
0.000134353
-2.55941e-08
-1.07353e-08
0.000134353
-2.55942e-08
-1.7942e-08
0.000125441
-2.37763e-08
-1.96284e-08
0.000108722
-2.04849e-08
8.63257e-05
-1.61644e-08
-1.61648e-08
9.7738e-09
9.77502e-09
8.63221e-05
-7.98442e-09
-7.98412e-09
8.9817e-09
1.29822e-08
0.00010872
-1.01451e-08
5.38855e-09
1.54373e-08
0.000125441
-1.18027e-08
-2.5074e-14
1.67627e-08
0.000134355
-1.27217e-08
-5.38858e-09
1.67627e-08
0.000134355
-1.27217e-08
-8.98182e-09
1.54373e-08
0.000125441
-1.18026e-08
-9.77399e-09
1.29822e-08
0.00010872
-1.0145e-08
9.77502e-09
8.63221e-05
-7.98476e-09
-7.98426e-09
1.29805e-08
8.98343e-09
0.00010872
-1.0144e-08
1.2156e-08
1.2158e-08
0.000136177
7.33081e-09
1.45842e-08
0.000155449
-2.85603e-14
1.58184e-08
0.000165369
-7.33091e-09
1.58183e-08
0.000165369
-1.21562e-08
1.45842e-08
0.000155449
-1.29809e-08
1.21579e-08
0.000136177
8.98343e-09
0.00010872
-1.01449e-08
1.54356e-08
5.39032e-09
0.000125441
-1.18012e-08
1.45824e-08
7.33276e-09
0.000155449
8.82128e-09
8.82304e-09
0.000176006
-7.30989e-14
9.528e-09
0.000186308
-8.82144e-09
9.52798e-09
0.000186308
-1.45827e-08
8.82298e-09
0.000176006
-1.5436e-08