/*--------------------------------*- C++ -*----------------------------------*\
| =========                 |                                                 |
| \\      /  F ield         | OpenFOAM: The Open Source CFD Toolbox           |
|  \\    /   O peration     | Version:  2406                                  |
|   \\  /    A nd           | Website:  www.openfoam.com                      |
|    \\/     M anipulation  |                                                 |
\*---------------------------------------------------------------------------*/
FoamFile
{
    version     2.0;
    format      ascii;
    arch        "LSB;label=32;scalar=64";
    class       volScalarField;
    location    "0.1";
    object      div(phi);
}
// * * * * * * * * * * * * * * * * * * * * * * * * * * * * * * * * * * * * * //

dimensions      [0 0 -1 0 0 0 0];

internalField   nonuniform List<scalar> 
25000
(
-96.6782
-87.2311
-90.5043
-89.4509
-82.629
-79.7867
-81.299
-83.6234
-84.0849
-69.2154
-82.2367
-69.6962
-70.0229
-68.7134
-66.522
-65.3271
-68.6518
-72.3841
-67.4243
-51.2209
-79.3968
-66.1261
-64.4705
-66.5811
-67.1232
-65.9323
-70.7517
-73.6218
-65.7614
-50.51
-75.7083
-60.7305
-63.106
-65.0887
-66.7562
-67.4751
-69.228
-71.3241
-67.1753
-50.7676
-70.633
-57.7863
-60.6117
-65.1537
-67.633
-67.2322
-68.6634
-69.5828
-65.7466
-51.5132
-65.2659
-54.4046
-59.5731
-64.1513
-67.6985
-67.1522
-66.4074
-66.9682
-65.5793
-50.1473
-64.3149
-55.8721
-59.843
-65.0774
-65.5403
-64.2727
-64.8197
-64.7593
-60.8736
-48.2444
-63.8716
-56.4424
-60.7779
-62.0031
-61.6191
-62.1
-60.7904
-60.4458
-58.4123
-44.4777
-67.2109
-55.2816
-53.822
-54.708
-55.5343
-54.5441
-56.2997
-55.4543
-52.0483
-40.9368
-58.0417
-42.6499
-41.155
-41.5668
-41.7027
-43.2157
-43.4922
-42.23
-40.769
-32.2767
-74.8407
-65.4858
-65.5081
-64.6793
-65.7695
-62.4492
-60.7757
-56.2115
-57.1829
-51.6443
-60.8526
-54.1989
-57.7573
-60.472
-54.0279
-48.227
-48.2241
-46.5405
-45.4289
-43.3579
-60.4933
-55.6117
-58.356
-59.6214
-51.3257
-46.8086
-49.9897
-52.0185
-52.2211
-47.1786
-55.5571
-50.4759
-55.7009
-55.0395
-49.8581
-49.0696
-55.311
-58.3681
-51.0383
-40.9264
-54.6496
-46.8445
-47.5626
-49.3185
-46.5225
-45.5412
-49.0531
-44.4686
-39.2939
-33.7106
-51.9789
-42.4801
-44.2137
-47.4188
-49.374
-50.6698
-50.2949
-42.2682
-37.5697
-31.1624
-53.9761
-43.1178
-44.4431
-51.8708
-52.9491
-52.2389
-51.0465
-42.7649
-37.2362
-33.4535
-50.3991
-39.1299
-44.0461
-51.8434
-48.473
-45.4724
-43.3317
-39.2248
-38.722
-33.9953
-49.0409
-37.3018
-41.7145
-49.8054
-43.1629
-38.3927
-39.6666
-39.7978
-35.8768
-31.9214
-44.347
-33.7885
-39.4453
-42.2324
-34.9874
-32.8745
-34.8738
-36.1469
-32.7631
-25.3858
-69.3348
-58.7068
-68.0405
-71.6063
-65.1711
-64.249
-58.9555
-50.111
-54.2548
-48.859
-53.5728
-42.9302
-51.3094
-57.5643
-51.7319
-44.6102
-39.2796
-37.0054
-33.4161
-31.6773
-54.4287
-44.0568
-53.2319
-56.6269
-48.2326
-39.4221
-31.4324
-27.292
-29.3406
-26.3283
-49.5065
-40.9495
-47.973
-49.0551
-42.8731
-33.5037
-28.1529
-28.0032
-26.6912
-26.7043
-46.0586
-35.6365
-38.6177
-39.7743
-35.799
-30.0446
-26.545
-26.0059
-28.8669
-28.657
-46.547
-32.4778
-31.5688
-31.4512
-29.5572
-25.5765
-24.648
-26.3376
-28.717
-31.672
-50.5392
-30.8609
-27.4446
-27.0212
-26.6967
-25.0587
-24.593
-25.591
-29.0439
-34.6377
-43.8625
-29.2249
-24.6891
-24.7832
-26.8006
-26.5077
-25.8458
-27.201
-31.5619
-33.9598
-42.3827
-27.9995
-23.2978
-25.4817
-28.0071
-29.2066
-30.2413
-32.032
-31.6291
-30.0785
-36.7812
-24.0841
-23.307
-25.3045
-28.9809
-32.7503
-35.2478
-33.9744
-31.442
-23.7382
-44.8053
-33.7182
-37.0461
-40.198
-38.8756
-35.9864
-31.9042
-28.6956
-33.1903
-30.7976
-32.4458
-24.3243
-23.9715
-28.9543
-30.8118
-24.6345
-23.1237
-26.2881
-26.9101
-27.2294
-30.2014
-22.6676
-26.7139
-29.2332
-27.9945
-23.8015
-19.133
-18.544
-21.996
-18.7964
-35.8153
-29.5599
-29.2608
-29.3387
-24.139
-16.9404
-15.1911
-16.1501
-15.2566
-15.3636
-34.3771
-24.6502
-24.4941
-21.1889
-17.518
-16.1477
-15.0926
-14.8392
-16.41
-14.3186
-30.3899
-22.7139
-18.5711
-16.1861
-15.246
-15.7851
-17.2514
-17.3975
-16.4976
-16.4181
-28.063
-21.9201
-19.4647
-15.4371
-15.0589
-16.298
-16.7542
-17.0758
-18.9938
-19.8993
-24.6596
-23.4111
-19.9983
-15.7062
-14.9225
-14.7272
-15.7903
-16.8943
-19.4854
-19.3304
-22.4324
-20.2862
-17.8458
-15.6501
-14.6356
-15.7919
-16.1063
-17.3582
-16.8004
-15.3638
-20.3553
-17.0509
-17.875
-15.6757
-16.1146
-17.119
-18.3857
-16.9215
-14.8433
-12.6674
-59.7834
-55.001
-52.805
-50.003
-49.8824
-48.2039
-40.6133
-33.9236
-35.3403
-31.6311
-49.1566
-36.5151
-36.3792
-39.4743
-39.8685
-29.7024
-26.2202
-29.7407
-28.2103
-20.9453
-44.2833
-30.1439
-32.5975
-33.9927
-32.008
-25.1304
-21.9747
-26.6393
-33.5364
-19.1301
-44.3912
-36.5288
-38.2511
-38.0391
-30.0711
-21.0037
-19.5819
-28.1469
-35.5149
-19.7969
-44.8437
-43.1363
-46.6481
-36.7284
-24.2306
-20.0688
-20.9003
-26.9631
-33.7528
-19.4872
-36.6727
-32.114
-27.8445
-24.221
-20.1481
-21.8145
-21.9446
-23.4023
-25.2832
-16.8039
-28.9093
-25.9352
-28.0473
-26.4572
-22.4436
-20.8011
-17.8527
-18.404
-19.3736
-16.2229
-23.9201
-21.1218
-23.7753
-24.8078
-23.0028
-19.5531
-15.5038
-15.8468
-18.2474
-17.3306
-21.8586
-15.0178
-14.5371
-16.2449
-17.9372
-16.9832
-16.0347
-17.1024
-18.6687
-20.5513
-21.8618
-12.2171
-11.3892
-11.423
-11.6822
-12.4425
-14.0642
-15.8827
-19.4116
-20.9205
-39.2562
-37.3065
-42.2042
-47.4943
-63.8853
-43.2283
-32.6274
-27.7415
-25.8668
-22.5233
-31.0808
-26.9798
-28.0666
-36.8611
-49.8424
-27.8232
-24.4859
-22.8368
-13.9027
-12.146
-25.4253
-21.8973
-28.3377
-32.4283
-32.9017
-20.4828
-20.316
-23.3813
-13.5493
-10.4625
-22.705
-23.7725
-32.3469
-33.1413
-25.2463
-17.521
-20.0913
-24.6821
-15.868
-9.63929
-21.4298
-27.217
-35.8091
-28.939
-19.9067
-17.3858
-19.9108
-25.711
-17.0575
-10.5748
-20.5016
-22.0498
-21.3337
-20.0131
-17.3221
-16.4383
-16.8732
-19.4677
-18.3882
-11.27
-18.4991
-17.162
-20.4433
-23.1988
-18.907
-13.0155
-10.5956
-12.9597
-12.8917
-14.8588
-16.8731
-11.1661
-14.4465
-19.0803
-18.3945
-14.5429
-10.7829
-11.4203
-14.9092
-16.2847
-17.283
-9.03919
-8.92692
-9.77393
-12.9553
-13.6284
-13.5978
-13.3825
-13.0199
-14.8172
-16.4023
-9.27878
-8.2999
-8.58136
-9.65201
-13.0489
-15.117
-16.1004
-14.6887
-13.0615
-57.857
-47.0364
-43.7208
-47.8131
-59.7082
-39.9692
-33.5018
-29.202
-25.2266
-23.482
-44.1205
-30.8347
-32.3655
-45.0963
-53.1674
-33.0119
-25.5049
-16.486
-15.3282
-14.4405
-39.4343
-27.7294
-35.1223
-50.6228
-40.0583
-23.3481
-22.6
-17.8424
-12.5172
-14.3961
-38.3264
-28.9934
-43.4021
-45.3211
-25.7278
-19.461
-19.4863
-20.2986
-15.8101
-14.3699
-37.2297
-34.4048
-37.6735
-26.5164
-17.5037
-15.0316
-20.052
-26.506
-15.1444
-16.9546
-35.0833
-26.9649
-23.3298
-20.6455
-13.8213
-11.619
-14.1659
-16.5068
-15.3272
-14.7011
-24.8313
-15.7976
-19.0327
-20.8837
-14.5859
-10.0928
-9.79513
-13.1476
-13.868
-15.9765
-20.2311
-11.1665
-11.6384
-15.2434
-14.7576
-12.0528
-10.4591
-12.3225
-16.2146
-15.0965
-17.8602
-8.5181
-9.88697
-9.7323
-11.4859
-10.8559
-13.5976
-13.1618
-13.4537
-14.2018
-14.9571
-10.7715
-11.0874
-12.1612
-11.8196
-14.16
-14.1996
-13.4343
-14.1583
-13.2812
-20.6719
-19.9896
-23.4071
-23.6909
-22.9983
-20.5356
-19.2587
-19.5741
-17.0419
-18.949
-17.5025
-15.8923
-19.4215
-19.8023
-20.889
-19.5322
-15.4312
-12.465
-14.4195
-14.6431
-18.0155
-17.4254
-18.5579
-19.1328
-17.7344
-14.8878
-12.5176
-12.847
-13.2672
-15.049
-21.8475
-18.4964
-17.1177
-16.3708
-13.6783
-12.4694
-11.2256
-9.96474
-13.4831
-15.3338
-20.3129
-17.942
-16.224
-12.8322
-13.2806
-14.0403
-12.101
-10.6625
-11.5559
-13.476
-19.8507
-14.8875
-10.4436
-11.0745
-14.2123
-13.1649
-12.8987
-11.4625
-9.30122
-10.7732
-15.064
-9.70356
-8.29902
-8.74847
-10.2445
-9.64264
-8.77382
-10.3465
-8.3809
-9.98441
-12.756
-8.8769
-6.82347
-6.60299
-8.15719
-9.10359
-8.47223
-10.4332
-10.1817
-11.7263
-11.3412
-6.87823
-8.52678
-8.03543
-7.51466
-6.23057
-7.86655
-10.4787
-13.8498
-14.0739
-10.9672
-8.95069
-10.4541
-11.0755
-8.77297
-8.25634
-8.59117
-10.7951
-13.7566
-11.2757
-50.1125
-37.5015
-38.7638
-39.3467
-34.6711
-28.6155
-23.6234
-21.7923
-23.4957
-21.0186
-37.5303
-29.1499
-30.4395
-26.826
-21.5533
-17.6462
-17.9146
-16.26
-12.6697
-12.171
-36.4825
-25.1538
-25.0069
-21.587
-20.5606
-21.9685
-19.1597
-16.0991
-17.7064
-9.71533
-31.7609
-19.6885
-20.3886
-17.2397
-13.6903
-9.72959
-11.5598
-16.1457
-13.7777
-12.7249
-27.1014
-17.1135
-20.3879
-12.955
-8.72964
-9.04709
-7.28854
-7.15049
-14.4294
-12.0232
-23.9907
-16.6448
-16.5828
-9.53911
-7.92734
-7.14332
-8.41882
-7.80132
-6.79692
-10.9476
-20.5788
-13.4497
-15.9883
-7.20554
-6.39242
-8.90354
-9.46073
-6.67493
-7.22646
-8.88935
-18.8728
-13.9878
-15.071
-7.49176
-5.47068
-5.49883
-7.98312
-9.22235
-4.3875
-6.32836
-17.5251
-12.4029
-11.5771
-10.3302
-5.39643
-5.55007
-4.88068
-4.84631
-4.39732
-3.98279
-16.2716
-8.43431
-9.20519
-8.69859
-8.38511
-6.40991
-6.89008
-5.69169
-3.79665
-4.51329
4.51365
1.85966
0.0313971
-2.7234
-5.82766
-10.3776
-11.7309
-12.5043
-15.6138
-11.882
3.15023
0.201524
0.291374
-3.08369
-4.07181
-4.37315
-7.70769
-7.41893
-4.55666
-7.28046
-0.252114
0.539273
-1.39746
-2.36355
-3.49803
-7.66459
-5.95308
-3.69414
-6.20251
-4.11679
-0.802775
-1.01909
-1.40764
-2.35657
-4.1765
-3.44671
-6.60891
-5.31393
-1.63404
-3.45851
-4.45595
-1.9347
-2.17512
-2.61955
-1.81445
-3.47902
-2.53021
-1.11533
-2.99222
-0.972178
-5.51509
-2.93801
-3.97716
-3.40673
-2.43146
-1.54422
-2.30716
-2.3718
-0.348374
-0.399316
-9.3597
-5.13682
-5.58484
-3.75093
-2.55747
-2.68816
-2.87264
-1.1924
-1.12931
-0.288065
-11.0192
-5.67507
-5.50058
-4.48366
-2.67503
-2.21759
-2.55238
-1.65089
-1.0947
-0.353687
-10.9599
-7.32377
-4.94758
-4.84166
-2.22264
-2.5424
-1.7657
-1.77024
-1.04899
-0.782907
-12.1163
-6.38654
-5.6494
-3.53455
-2.44907
-1.47815
-1.41464
-0.944605
-0.854982
-0.640409
-17.8815
-11.1818
-10.4844
-11.5042
-12.1087
-12.852
-12.2239
-11.6926
-13.2128
-11.1382
-10.3101
-7.97776
-9.06269
-9.28388
-6.99115
-5.72658
-4.68141
-6.17807
-6.57152
-5.62819
-9.42192
-8.47778
-9.28894
-10.5198
-7.58025
-4.59844
-2.89877
-2.77789
-3.44226
-4.39784
-5.88924
-5.31455
-7.91845
-10.4818
-8.58074
-5.03319
-1.75107
-1.57892
-3.71712
-2.41652
-7.54299
-5.52985
-5.43437
-9.36934
-6.21707
-2.47414
-2.43793
-3.1011
-1.48766
-3.30568
-6.59305
-4.61006
-4.96298
-4.73116
-3.66973
-3.90576
-3.20983
-2.35794
-7.01061
-2.38327
-9.1605
-6.39302
-3.58819
-4.11642
-4.35703
-4.41641
-5.70665
-8.5095
-5.12856
-5.05327
-10.9066
-7.53986
-5.51877
-4.58718
-5.42962
-8.89815
-9.2586
-8.18139
-10.411
-5.30657
-12.7053
-9.39301
-6.99481
-5.91507
-8.45905
-8.74281
-10.1122
-9.94887
-8.43432
-8.9767
-12.4668
-6.1526
-4.86492
-4.64423
-3.98169
-4.91136
-5.50357
-6.11258
-9.43398
-9.50223
19.4775
12.5684
11.5185
11.5714
11.6383
11.7729
7.9513
6.13528
5.48913
4.7469
13.3478
8.6917
9.83332
13.0411
10.9623
7.09549
6.23452
6.02226
3.25208
3.5917
10.0227
8.94111
13.704
14.4116
8.26983
5.72796
2.92394
2.87861
7.1244
2.34208
10.1539
9.07821
7.81136
9.40471
7.78544
2.83127
2.84359
5.03517
1.33817
2.56431
6.76319
6.65018
5.88486
5.83603
3.56546
3.12754
1.21723
-0.0368051
3.29698
0.260811
7.39981
5.89426
1.33432
1.96052
1.13522
-0.791676
-0.386423
0.744553
-2.91313
0.112253
2.19572
-0.313838
0.976447
-0.856243
-1.2983
-1.63516
-2.57304
-4.60991
-1.75172
-3.48838
-0.0759703
-0.524
-2.10759
-1.99556
-3.09206
-5.01535
-4.63744
-4.88413
-7.41055
-5.50858
-2.13863
-1.52919
-2.21309
-1.73515
-3.6407
-2.73715
-6.00253
-7.74038
-7.58859
-7.88428
-2.54421
-1.29823
-0.555767
-1.25929
-1.20372
-3.43145
-5.16653
-6.78467
-8.34173
-7.01419
-4.79846
-3.14571
-1.79429
-0.995715
0.230474
2.7796
3.88807
2.76433
4.39033
1.76337
-6.12856
-2.8133
-2.06262
-0.60019
1.61595
1.26426
2.39716
3.30364
0.260426
1.66738
-5.84995
-3.45215
-1.84138
-0.827471
0.0483685
1.89956
0.83142
0.0633467
2.85821
0.398127
-4.55936
-2.38685
-2.48014
-0.593329
0.28977
-0.592444
0.534012
1.83358
-1.30368
0.57136
-3.48267
-2.63729
-1.07601
-0.563333
-0.54877
0.696654
-0.189215
-1.75922
0.683131
-0.9948
-4.01161
-0.993988
-0.844294
0.153356
-0.0686671
-0.845833
-0.894446
-0.392885
-2.63754
-1.16212
-2.6429
-0.76784
0.6462
-0.408557
-0.253741
-0.687504
-1.47243
-2.77818
-2.06402
-2.74938
-1.51034
0.551481
0.657984
0.415103
-0.213718
-2.01196
-2.00236
-3.18177
-4.34818
-3.59011
0.251341
2.05233
0.705092
1.47842
-0.838255
-0.346716
-3.34574
-3.89888
-4.67317
-4.41335
1.77039
1.23357
1.88843
0.883389
0.775767
-1.217
-2.33023
-3.84262
-4.72416
-3.89629
6.92029
6.1727
6.87624
8.91575
15.7754
22.8374
19.2936
17.1421
18.631
15.1853
4.87349
5.21343
5.48612
10.6099
17.4227
15.9602
11.8916
12.0677
8.33378
8.40949
6.61336
4.5075
4.36269
6.70908
7.58916
8.25606
7.16627
6.60502
7.10158
5.73252
4.36303
5.63827
6.25764
4.91786
4.50743
3.71767
3.8658
5.74302
3.39827
4.64929
9.8498
9.71088
6.68595
4.73201
3.46062
3.30972
3.58499
3.28163
2.69836
2.33198
9.74202
9.06023
7.92261
5.20669
3.91347
3.52686
2.45865
2.48352
1.70132
1.53211
12.7226
10.4162
7.80074
5.37029
5.1034
3.45618
2.38255
2.2718
1.83861
2.37095
11.8246
9.15594
7.76742
6.05723
5.27808
3.72146
2.85634
2.67987
4.51158
3.29704
14.0519
10.7153
7.01922
6.33563
3.56828
3.06944
3.01546
5.23667
5.4442
5.26725
15.4202
7.88956
7.65327
5.713
4.03954
3.23714
3.91559
4.41768
5.67871
5.53317
-13.6929
-4.88911
-0.804044
1.52877
3.82075
4.93399
5.75575
6.13292
8.82367
6.27664
-9.27867
-2.722
-0.90892
1.04495
2.24965
3.00827
4.58397
5.84589
3.43097
2.95157
-4.19848
-1.9619
-0.59778
0.636474
1.33729
2.40466
2.99354
2.18128
3.12938
1.32098
-2.98326
-0.993826
-0.0901883
0.2873
0.778323
0.878711
0.820356
1.22183
1.09322
0.204847
-0.329552
-0.0113146
-0.0698882
0.62843
0.598832
0.47979
1.09962
0.826077
0.221499
0.601322
-0.366934
0.511887
1.64868
0.858998
0.891857
1.70444
1.51023
1.23485
1.43874
0.153365
2.37395
2.63087
2.13328
2.06541
1.92031
2.31509
2.91832
3.60128
1.16165
2.33882
3.00879
3.14345
4.03411
2.65478
2.13994
3.27467
3.69243
3.95021
5.59305
3.70436
5.21014
4.54873
3.72191
2.92084
2.90036
2.46657
4.19067
6.93584
6.80842
5.69098
6.10328
2.70616
1.6337
1.35482
1.24501
2.12986
2.76794
3.17764
4.45607
3.30484
18.5562
14.9615
15.7233
12.49
9.89685
7.11207
6.96947
6.38283
3.70798
4.55894
12.6262
7.65765
8.7812
5.69656
4.02278
4.21806
3.10648
2.3527
3.84082
1.96514
13.2968
8.66757
9.87157
5.69493
4.33814
2.73802
3.6473
4.79585
1.58479
3.2463
10.3753
5.52325
7.28379
4.4781
2.63001
2.98926
2.49346
2.24111
6.95637
3.44515
6.54971
3.86003
3.94408
3.13014
2.30924
1.23774
2.37321
3.37808
2.45649
7.7054
5.17182
2.73636
3.97425
2.44526
1.85641
2.86477
3.63203
3.57691
5.4271
6.66623
5.16525
3.318
2.60679
4.18506
2.42055
3.7254
8.1098
10.1269
4.66118
11.0126
4.93177
2.78272
4.10161
4.147
3.55558
5.83547
9.38828
11.4209
11.2867
13.5801
4.75112
1.84161
3.23786
3.59099
6.50148
4.63423
10.2906
13.9569
15.2673
17.0176
3.56565
2.11465
1.49361
2.73767
3.03534
6.42252
8.55129
10.5873
13.8709
11.5863
3.36611
2.35137
2.92124
1.80606
1.55921
1.38042
2.40103
3.69502
2.82543
3.47105
0.15409
0.441961
0.475848
0.429265
0.279918
1.17946
0.620662
1.13146
2.72805
1.59723
-1.93352
-0.18269
-0.418939
0.47774
0.832745
0.0977125
2.02088
3.44097
1.09543
2.57782
-1.47141
-0.936086
0.608873
0.542877
0.612198
2.37112
2.84503
2.88443
5.29799
2.82975
-0.536819
0.473157
0.228199
1.46605
1.63923
1.2608
2.631
4.61016
3.63114
6.01698
0.521797
0.442486
1.92494
2.06103
1.89339
2.97614
4.10674
4.52534
6.46141
7.35345
1.93293
1.83875
1.89442
5.11089
2.9416
4.30533
7.90335
9.59547
6.61722
10.0961
2.87732
2.27839
4.34132
5.61071
5.0338
6.69002
10.0084
11.2636
9.35242
9.016
4.83434
2.00444
3.40568
4.15461
7.17695
7.08196
11.5743
11.9674
8.36266
7.58283
4.16405
3.17652
2.99728
4.34025
5.27536
7.12445
7.77989
7.93721
7.24522
6.27207
20.735
13.2845
16.877
14.9293
9.50333
7.11353
6.53222
7.64338
10.8028
12.1963
12.1483
6.79417
6.05587
5.42395
4.56847
3.80694
3.80887
5.23431
6.49371
7.34325
9.6576
4.37285
4.16403
4.89043
3.7413
3.06441
3.95853
4.20875
5.10891
6.43646
6.2999
2.87942
4.13576
4.50447
3.49841
3.58095
3.34712
3.95701
4.6998
5.18988
3.50725
2.31043
2.31257
3.45443
3.5603
3.06079
3.46014
3.9435
5.46032
5.17086
1.80495
1.62053
2.843
3.28873
3.3434
3.41904
3.42506
4.89412
6.14714
6.14039
3.57314
2.94748
3.13423
3.96191
3.46381
3.51876
4.2582
5.57493
7.50241
5.94888
4.77882
4.0933
4.56213
4.09443
4.18274
4.36315
5.32006
7.18547
5.96377
5.42398
8.10163
6.25879
5.17182
4.62392
4.67077
5.36436
5.84128
5.86592
4.47914
3.64199
10.8447
7.39728
6.85092
5.26044
4.99822
4.95203
5.05292
4.72856
3.49943
4.2946
24.6931
18.1782
18.1959
13.6594
10.9602
8.60504
6.80049
6.33749
9.16921
7.48968
16.1431
12.4842
10.2133
8.90295
8.66025
6.01971
5.64869
6.30904
4.44256
5.47417
7.64668
6.61674
7.57887
5.43043
3.72835
4.09492
3.897
3.8521
6.9887
4.85497
5.5359
4.57221
2.86353
3.38685
2.81043
1.77639
2.46153
4.73428
3.72845
5.56864
1.13677
0.639655
1.63086
1.56331
1.47406
1.739
1.65042
1.66559
5.46899
3.74499
0.166648
0.755734
0.354121
0.989685
1.21482
1.04057
1.19945
3.21763
2.46282
3.50283
-0.118646
-0.0102102
1.01893
1.0367
1.11002
1.26573
1.78698
1.71409
3.11386
2.21966
0.417519
1.12262
1.76813
2.01672
1.8844
1.62998
2.06877
2.24224
0.923063
2.0894
1.79137
2.45429
2.84151
3.9521
2.79943
3.56096
1.66429
1.28196
0.680384
0.850304
3.12695
2.59406
3.72709
4.12618
4.39456
3.0614
2.50917
1.85234
0.599662
1.73701
18.7545
17.233
14.8106
9.26778
6.78999
6.08676
4.78877
4.1724
5.68395
6.56843
16.3223
14.8983
11.0955
7.09985
5.66708
3.92155
5.11291
5.03583
3.53171
5.43377
9.58217
8.23892
10.3917
6.12929
4.14118
4.92398
5.14768
5.45152
5.30695
4.27665
5.75622
5.23558
3.61536
3.64866
3.21139
1.82339
3.16243
5.26732
2.77501
4.13362
2.85691
1.22197
2.86737
2.12468
1.63738
1.78454
1.48589
1.83748
4.07595
2.9024
2.05702
1.71422
0.953136
1.26064
1.12275
0.679517
1.15034
2.73985
1.32373
2.95724
1.73734
0.40698
2.02514
0.932217
0.928155
0.993805
1.14772
0.686171
2.05412
2.02902
1.62721
1.3046
1.68467
1.96467
1.45284
0.770044
0.789144
0.906733
0.335068
1.97344
2.10313
1.50489
1.59478
2.26041
1.3034
1.7179
0.242959
0.46679
0.365225
0.831099
3.55693
2.32348
2.57601
2.08498
2.2805
1.42145
1.39279
1.13989
0.447392
1.48502
5.84443
5.93682
6.75478
7.93709
7.43152
6.04564
5.56692
4.71183
6.95308
7.37059
4.80159
4.1231
3.91674
4.27593
3.55201
2.12655
2.80224
3.09387
1.92082
4.50122
4.75544
2.75979
3.52974
2.93036
2.0431
2.49823
2.33912
2.77362
3.45985
3.5014
3.16467
2.34566
1.93856
1.63993
1.5905
1.12214
2.393
4.26398
1.53498
2.70836
3.66041
1.30803
1.33123
1.15919
1.01325
1.23692
1.21315
1.417
2.24662
1.65953
2.95756
1.09352
1.11176
1.27337
1.05628
0.778745
1.08057
1.86799
0.864042
1.59107
3.24963
1.28224
1.84215
2.14638
1.58521
1.44689
1.27738
0.986917
1.269
1.57103
4.01893
1.67678
2.98436
3.85365
2.63838
1.88265
1.3867
1.12377
1.26202
1.79131
5.26523
2.46234
2.13345
2.91503
1.89269
1.97484
0.968444
1.54413
1.20077
1.85362
6.35141
3.13431
3.58324
2.86728
2.37538
1.65301
1.76599
1.67535
1.60253
2.24991
2.80866
2.3728
2.54486
3.6257
5.21778
6.59331
6.1797
6.11898
6.65681
6.86179
0.370337
1.2321
1.41139
2.35263
2.98047
1.91032
1.71534
2.02748
1.96436
3.44478
1.52219
0.739346
0.793178
1.66915
1.5105
1.07988
1.35445
1.64442
1.86402
3.00424
-0.431096
0.430456
1.27665
0.822758
0.682087
0.822118
1.06687
1.90618
1.93986
1.85467
2.84927
1.74389
0.734083
0.813363
0.750336
0.486607
1.17514
2.14795
1.14875
1.99121
3.24158
1.11405
1.31217
1.01399
0.852118
1.27126
1.45781
1.66328
2.79114
1.79373
6.62694
2.00094
1.58566
2.35755
2.1451
2.04812
2.67186
3.39179
2.23066
3.3873
8.13337
2.21048
3.3474
4.09724
3.47206
4.23323
3.56965
3.2956
4.85983
4.03998
9.98713
3.85132
2.98131
2.84536
2.80721
2.83641
3.61536
4.97772
4.70598
5.54742
10.2552
5.11383
4.04621
3.1616
2.37925
2.81438
3.77261
4.53081
5.66135
6.09597
4.26292
2.40628
2.06743
1.73763
2.04673
3.82051
4.01392
3.10467
4.56509
2.97681
0.538262
0.753634
0.647422
0.909563
1.29519
1.04852
0.621938
0.814558
0.434392
0.391122
-0.266845
-0.233908
-0.346949
0.299611
0.220991
0.0271124
0.223948
-0.388686
-0.29567
-0.36139
-2.20821
-1.04087
-0.187939
-0.378318
-0.215848
0.0346639
-0.731675
-0.934809
-0.0725938
-1.29675
-0.146206
-0.0342663
-0.743233
0.077533
0.0829734
-0.540898
-0.00093871
0.0193524
-1.52958
-0.346562
-0.673968
-0.0879223
0.696575
0.310696
0.189113
0.835798
0.194847
-0.596921
1.54622
-0.677613
3.50442
1.44159
0.805802
1.39569
1.60262
1.07838
2.04582
2.97824
0.440977
1.5529
6.59298
1.65957
2.19219
2.60274
2.2545
3.68271
3.68412
2.3853
4.07806
2.1168
7.62112
3.37207
2.78212
1.82834
2.14577
2.30101
3.49775
4.56692
3.47517
3.98102
7.01554
4.6843
3.25596
1.80455
1.41421
2.12211
2.85453
3.02904
4.06968
4.11228
-4.16194
-3.3622
-3.49609
-3.31898
-3.49479
-3.88111
-3.6677
-3.29384
-3.00221
-3.24723
-3.80758
-2.46989
-2.11763
-2.23558
-2.58168
-1.71419
-1.21361
-0.940032
-1.0477
-3.20322
-3.08629
-2.1698
-2.41481
-2.02107
-1.90687
-1.34943
-0.703154
-1.05142
-1.54673
-1.90449
-3.57216
-2.63969
-1.75913
-1.68213
-1.26178
-0.532101
-1.36593
-1.82982
-0.498174
-2.31705
-1.936
-1.62831
-1.97179
-0.712567
-0.437093
-1.03904
-0.601532
-0.507817
-2.05561
-1.18182
-1.72435
-1.03284
-0.00308295
-0.277922
-0.320482
0.295553
-0.353944
-1.21047
0.735459
-1.27168
0.316685
0.479447
0.0511099
0.398277
0.673563
0.181742
0.961062
2.00432
-0.0896607
0.596847
1.17734
0.635697
0.65462
0.910242
0.707809
1.79486
2.23512
1.51384
2.73389
0.948443
2.0459
0.913807
1.05989
0.585343
1.16351
1.23279
2.19501
3.0124
2.11796
2.08865
1.27115
0.9862
0.366461
0.508217
0.487443
1.06061
1.41961
1.39291
2.09948
1.79801
-7.08992
-5.26113
-4.94041
-4.39017
-4.42042
-4.19823
-3.8566
-2.95782
-2.22382
-2.55259
-4.70324
-3.38031
-3.00286
-2.99737
-3.37948
-1.89087
-1.16774
-0.863327
-0.952861
-2.25243
-3.02844
-2.26916
-2.21444
-2.11119
-1.86345
-1.12617
-0.56865
-0.583669
-0.84538
-1.31128
-1.99142
-1.84397
-1.50991
-1.28378
-0.994255
-0.429368
-0.660702
-0.783022
-0.246274
-1.26078
-1.22943
-0.875657
-1.15323
-0.619992
-0.358616
-0.532359
-0.334922
-0.190202
-0.661711
-0.700428
-0.279289
-0.591046
-0.315643
-0.352909
-0.257789
-0.0452148
-0.126164
-0.323911
0.316787
-0.51982
-0.96973
-0.462599
-0.375331
-0.171846
-0.0530532
-0.0120977
0.276338
0.761782
0.266129
0.096617
-1.81599
-0.660492
-0.578601
-0.12498
-0.0672743
0.47165
0.675398
0.886755
1.16649
0.222448
-2.16184
-2.36444
-0.544258
-0.646332
0.318363
0.242582
0.964068
1.18325
0.913522
0.48405
-3.44928
-1.86741
-1.67367
-0.390606
-0.138805
0.462292
0.55373
0.543081
0.606725
0.133121
0.846564
0.715663
0.454906
0.777451
0.789528
0.365368
0.0389592
1.08497
-0.318732
0.784736
1.57788
0.665945
0.850817
0.6485
0.163356
0.486583
0.176897
-0.157738
1.58457
0.786746
2.68816
1.80826
1.1537
0.954838
0.940278
0.159663
0.45685
0.78935
0.587947
1.44575
3.8219
1.82736
1.9089
1.19359
0.643727
0.657746
0.676532
0.916584
1.3421
2.12381
4.03804
2.14466
1.82007
0.967402
0.631379
0.590346
1.00729
1.40178
1.81464
3.14906
4.56751
1.29543
0.882253
0.567924
0.629387
0.67894
1.03077
1.8024
2.58002
3.38449
2.7122
0.716071
0.384694
0.503801
0.410369
0.758181
1.21836
1.65521
3.57131
1.71055
1.46175
0.336385
0.0690638
0.259926
0.426952
0.654763
0.826041
2.53109
1.915
1.42562
0.234096
-0.961398
0.170284
-0.00967493
0.548768
0.46306
1.28163
1.07629
1.65669
0.561413
-0.697884
-0.0566204
0.0411326
0.708028
0.799771
1.16847
1.16042
1.40536
1.01812
0.729247
-5.60662
-4.15714
-3.67743
-2.92009
-2.83962
-1.9939
-1.24297
0.788898
0.0413415
1.03027
-3.36635
-2.81624
-2.404
-2.40536
-3.69073
-0.965316
-0.16639
-0.177921
1.55865
1.15344
-0.583343
-0.871238
-1.30799
-1.51909
-1.03035
-0.359272
0.232778
0.794617
1.02179
1.72089
0.405485
-0.202165
-0.0997029
-0.310925
-0.199505
0.260771
0.673336
1.20512
1.20203
3.08015
1.39741
0.80692
0.229155
0.132006
0.202258
0.527552
0.951696
1.07837
2.33718
3.49477
1.81591
0.478488
0.341777
0.163342
0.43373
0.383496
0.855273
1.81012
1.55001
2.61837
1.67058
0.518768
0.0736662
0.338261
0.0684157
0.63864
0.902853
0.723769
2.58339
0.951957
1.117
0.249966
0.159553
0.00317291
0.299337
0.280672
0.303819
1.76769
0.470769
0.582475
0.801298
-0.0957842
0.153862
-0.0306313
0.265666
0.127083
0.830833
-0.054663
0.507449
-0.197371
0.439161
0.20354
0.0497421
0.32574
0.275655
0.562745
0.379335
0.493005
-0.0674959
-0.149363
0.113626
0.075651
-0.16112
0.0118092
0.652321
0.762855
1.00101
2.46531
1.18144
2.56088
1.41583
0.854874
0.234803
0.710353
0.047574
0.886873
0.844137
0.715157
2.365
2.76886
2.01783
1.11121
0.777616
0.607582
0.961644
0.459806
0.760914
1.56473
1.75557
3.41728
1.70935
1.31057
0.979675
0.751778
0.515584
0.625803
0.976134
1.44746
2.05133
3.72436
2.01662
1.54969
0.898357
0.451532
0.396162
0.646209
0.970176
1.41093
2.35674
2.9419
1.80051
0.746652
0.36168
0.137299
0.448204
0.362816
0.98494
1.74965
1.70836
2.47621
1.5921
0.459114
-0.125028
0.28954
-0.123708
0.696491
0.935717
1.26494
2.872
1.84229
0.854723
-0.0776011
-0.054909
-0.419079
0.186845
0.295431
0.768515
2.77121
2.09041
1.77186
0.656347
-0.435128
-0.40597
-0.530134
0.206797
0.319012
2.0988
1.66019
2.25788
1.31534
-0.0325753
-0.506568
-0.946866
-0.447352
-0.312491
0.421484
0.69557
1.18792
1.17471
1.06207
-2.74023
-1.97807
-0.793354
-0.758485
0.00509495
0.397809
0.968277
1.42351
1.0865
1.76081
-2.54255
-1.75489
-1.89843
-0.696434
-0.691497
-0.00292222
0.378228
0.36734
0.969503
1.26012
-3.66689
-2.66045
-1.50999
-1.82498
-1.12198
-0.230216
0.0476798
0.606042
0.791454
1.64496
-3.18627
-2.74745
-2.74337
-1.88592
-1.06134
-0.294771
0.239758
0.530996
1.02255
2.15357
-4.81831
-4.61268
-2.77434
-1.56829
-0.714935
-0.106057
0.134558
0.613211
1.32927
1.87384
-5.82831
-3.5575
-1.91075
-1.16919
-0.449582
-0.330861
0.388876
0.911328
1.08122
1.9963
-5.90527
-3.00603
-1.72631
-0.803998
-0.836036
0.169485
0.367962
0.83029
2.04118
1.95908
-6.81693
-2.88279
-1.86889
-1.34585
-0.54016
-0.142481
0.330388
1.79976
1.54313
1.81944
-5.37881
-3.61433
-1.96394
-1.80841
-0.39346
-0.28887
1.51915
0.93169
1.56332
1.11106
-5.83004
-3.68603
-3.52591
-1.87905
-1.32404
-0.174752
0.0567641
0.63736
0.840459
0.775882
-1.3232
-1.55737
-1.36502
-0.88993
-0.444743
-0.442153
-0.104412
0.152827
-0.465582
0.930681
-2.76251
-1.88295
-1.0454
-0.686515
-0.563681
-0.187134
-0.304612
-0.701498
0.241075
0.175819
-1.83425
-1.65181
-1.69232
-1.04588
-0.689729
-0.673158
-0.382344
0.0269916
-0.760398
0.790553
-2.37905
-1.79822
-0.80261
-1.04943
-0.877434
-0.215316
-0.254971
-0.48324
0.665466
0.864423
-0.983248
-0.41825
-0.958616
-0.391722
-0.131031
-0.301211
-0.0704279
0.550503
0.328544
1.61139
-0.596153
-0.187582
0.320146
0.0657725
-0.00223914
0.269018
0.290093
0.463375
1.59583
2.12282
0.869047
1.19328
0.483475
0.50921
0.578412
0.455277
0.669796
1.40095
1.95425
2.58352
2.08281
1.36099
1.11376
1.00677
0.958103
1.18658
1.4909
2.01816
2.49862
2.97188
2.8008
1.9515
2.05711
1.64074
1.82439
2.2697
1.89728
2.09616
1.86833
1.88035
2.18491
2.67135
2.73765
2.25248
2.01909
1.41481
1.31256
1.47252
1.64666
2.08363
-14.8474
-14.1003
-11.2268
-7.25786
-6.23048
-6.94706
-7.57451
-7.70257
-9.3891
-6.7231
-16.1863
-12.9815
-6.12345
-4.24131
-3.12205
-2.28299
-3.44435
-5.36288
-3.22751
-5.73864
-8.02241
-6.24187
-6.62629
-3.38769
-2.45198
-2.80989
-1.85089
-1.38214
-6.46243
-2.83825
-6.60408
-5.11583
-2.05822
-2.94482
-2.40075
-0.561434
-1.24562
-3.13698
-0.153444
-2.22164
-1.64055
0.0350063
-2.34299
-0.604877
-0.0443406
-0.973678
-0.426487
0.890506
-2.22956
1.38778
-0.209046
-0.274993
1.59232
0.645421
0.229903
1.10109
0.605967
-0.0266858
3.65162
2.79051
4.39242
3.35459
1.88356
1.88097
1.97045
1.10577
1.66008
4.06049
4.02112
4.78049
9.15158
3.8831
4.10734
2.94985
2.81233
4.03622
4.18292
4.64038
7.31127
5.25977
11.9244
8.54634
7.00878
5.46483
7.20953
7.15772
3.33329
4.18975
3.15272
3.79363
14.1631
14.3334
14.0975
12.0612
10.2968
4.22175
3.21722
3.07612
3.34097
4.35289
-5.98824
-5.90815
-7.1085
-5.78646
-6.47002
-7.44878
-7.94646
-6.65688
-8.21171
-4.68781
-8.1843
-5.50506
-1.5277
-2.66412
-2.35982
-1.78472
-3.61965
-7.28701
-2.41625
-4.00463
-1.0548
0.236358
-3.37053
-1.0716
-1.01733
-2.2142
-1.35689
-0.957299
-8.17025
-1.29121
-1.35973
-1.40028
2.04043
-0.390255
-0.908645
0.44917
-0.745849
-3.05181
1.84565
-0.947794
3.9784
3.38575
0.691781
1.34658
1.12928
-0.431476
0.55736
2.0065
-0.602261
2.59864
5.94462
1.80887
3.67909
1.9933
0.989826
1.88693
1.38239
1.45736
5.52711
4.42538
11.3161
5.08684
3.46189
2.85057
2.66099
1.59942
2.97058
7.27966
7.224
7.72659
15.4022
5.88707
5.20929
4.06252
4.13049
5.26833
6.03537
6.87917
8.79131
7.73869
15.2303
10.8004
9.62254
8.86116
9.67932
7.84726
3.47986
4.84004
5.33613
5.72514
16.3445
16.4687
19.1671
13.8497
11.4025
4.37702
4.1428
5.14531
6.49293
7.00358
-31.9578
-20.2388
-19.6506
-19.9481
-21.0806
-19.8455
-12.6544
-10.1125
-8.34804
-6.42743
-25.0182
-12.4688
-8.14446
-6.05087
-4.41006
-3.51795
-6.57772
-9.17666
-3.35624
-4.89799
-12.6297
-5.53196
-7.50841
-4.00744
-2.44865
-2.70641
-2.12785
-2.35719
-5.48377
-2.54554
-7.31212
-4.14699
-2.93561
-2.53405
-1.64992
-0.333926
-1.35363
-2.60278
0.110814
-1.8753
-2.11481
-0.261389
-1.54663
-0.428094
0.0454462
-0.732116
0.0201841
0.937609
-1.12588
0.842799
0.487175
-0.0293538
0.830761
0.526858
0.138169
1.0105
0.616852
0.616717
3.36561
2.04712
3.05796
1.71166
1.26554
1.00271
1.45657
0.777204
2.0225
5.17872
3.61881
4.53976
4.88072
2.6488
2.08644
2.32497
2.72359
3.12372
3.98482
3.88542
5.56167
4.76302
4.79399
4.79052
4.16177
5.00367
4.83257
3.51931
1.86445
3.78116
4.4899
4.20338
4.57724
5.05142
6.76797
4.73917
3.53011
2.15704
2.74367
3.90511
5.20984
4.77601
60.9661
27.4745
26.2364
26.3758
30.6594
29.452
20.289
12.846
8.00989
7.78012
32.2845
14.5584
14.4538
8.3281
6.18592
4.75461
7.36752
9.70123
5.94104
5.35801
21.861
11.6755
13.7659
7.33479
4.11278
3.12015
3.14535
4.84962
4.80018
4.49297
17.0644
8.30297
8.52083
5.35609
3.30656
2.08353
2.20712
3.2911
3.31095
3.08519
12.0455
4.4082
5.0878
3.28842
2.20209
1.62934
1.79021
2.7545
2.08518
2.6532
12.4491
3.54796
2.52214
2.27021
1.58345
1.36813
1.58591
2.47152
3.14563
2.3913
8.79697
2.41326
2.12277
1.39468
1.52171
1.18356
2.2465
4.17839
3.67631
4.26422
7.3465
2.88776
1.66046
2.1579
1.69585
2.19895
2.88624
3.53614
7.02726
5.51794
3.58017
2.58599
2.81522
3.01569
2.37208
1.88805
2.16181
4.47303
5.97876
6.35027
2.12515