/*--------------------------------*- C++ -*----------------------------------*\
| =========                 |                                                 |
| \\      /  F ield         | OpenFOAM: The Open Source CFD Toolbox           |
|  \\    /   O peration     | Version:  2406                                  |
|   \\  /    A nd           | Website:  www.openfoam.com                      |
|    \\/     M anipulation  |                                                 |
\*---------------------------------------------------------------------------*/
FoamFile
{
    version     2.0;
    format      ascii;
    arch        "LSB;label=32;scalar=64";
    class       volScalarField;
    location    "0.1";
    object      magR;
}
// * * * * * * * * * * * * * * * * * * * * * * * * * * * * * * * * * * * * * //

dimensions      [0 2 -2 0 0 0 0];

internalField   uniform 0;

boundaryField
{
    walls
    {
        type            calculated;
        value           nonuniform List<scalar> 
2000
(
3.24101e-05
2.98159e-05
2.25804e-05
1.52358e-05
1.26235e-05
1.18152e-05
1.11248e-05
1.59784e-05
2.47387e-05
2.96525e-05
1.03182e-05
1.23879e-05
9.33433e-06
7.60528e-06
4.02533e-06
1.20173e-06
1.0043e-06
2.54405e-06
1.12808e-06
1.09443e-07
0.000143196
0.000129157
8.69396e-05
6.86852e-05
5.77593e-05
3.84426e-05
5.72732e-05
0.000139588
0.000442885
0.000541101
8.68402e-05
0.000243659
0.000371924
0.000310772
0.000174483
8.30075e-05
7.90557e-05
9.83365e-05
6.63217e-05
1.79782e-05
1.80927e-07
1.10776e-05
6.41962e-05
7.7644e-05
3.73683e-05
4.62097e-06
2.1835e-05
7.80696e-05
8.99771e-05
5.41188e-05
1.82289e-05
1.08541e-05
1.67973e-05
2.95093e-05
6.66077e-05
9.89653e-05
0.000127391
0.000135549
5.73534e-05
7.59169e-06
9.61893e-05
0.000129558
0.000181095
0.000240622
0.000443071
0.000661409
0.0005959
0.000377699
0.000202878
0.000127942
0.000137197
0.00019907
0.000411642
0.000878012
0.0016722
0.0024489
0.00254524
0.00254174
0.00294181
0.00308801
0.000283421
0.00130744
0.00364181
0.00757792
0.0127494
0.0175965
0.0207818
0.0206999
0.0163429
0.0104688
0.000682191
0.00181421
0.00378028
0.00654263
0.0091148
0.00988777
0.00787578
0.00455544
0.00220878
0.00107443
0.000198651
0.000288279
0.00059829
0.00128357
0.00178178
0.00132243
0.000427583
1.97455e-05
3.56565e-05
1.40047e-05
0.000845753
0.0014171
0.00191151
0.00203645
0.00199519
0.0017622
0.00123542
0.000874958
0.000666628
0.000267021
0.00750092
0.010184
0.0117105
0.0142643
0.018635
0.0235875
0.023199
0.0172397
0.0111828
0.00623939
0.00869171
0.0130479
0.0150323
0.0163968
0.0203031
0.0261175
0.0288117
0.0250145
0.0189879
0.0145026
0.00287182
0.00627091
0.0103094
0.0122109
0.0133188
0.0167612
0.0204943
0.0190847
0.0148751
0.0119642
0.00314481
0.00806281
0.0141337
0.0183078
0.0218647
0.0285888
0.0361536
0.0300837
0.0204861
0.0144369
0.00532427
0.0104937
0.0167234
0.0222424
0.0272038
0.0311483
0.0299704
0.0222798
0.0138997
0.00947955
0.00452591
0.00830072
0.0132702
0.0166152
0.0167764
0.0144065
0.0104224
0.00677303
0.00474791
0.0028746
0.00371537
0.00618252
0.00973075
0.0116211
0.00999389
0.00712358
0.00426579
0.00239616
0.00155519
0.000839651
0.00459946
0.00683253
0.00973154
0.0143647
0.0168996
0.0144191
0.00975436
0.00586401
0.00330428
0.00157766
0.00141986
0.00316267
0.00484174
0.00840828
0.0135441
0.0160521
0.0138412
0.0088669
0.00501327
0.00250143
0.00125479
0.00297471
0.00453918
0.00840835
0.0137478
0.0165921
0.0151334
0.0106543
0.00650991
0.00360737
0.00229618
0.00400294
0.00544684
0.00900221
0.0135106
0.0162667
0.0156744
0.0117496
0.00744026
0.00459048
0.00235033
0.00377204
0.00499405
0.00729325
0.00979845
0.011638
0.0114021
0.0086888
0.00603159
0.00405605
0.0011315
0.00210388
0.00253899
0.00288757
0.00333388
0.00423402
0.00455465
0.00359397
0.0028492
0.00227912
0.000862777
0.00208784
0.00299846
0.00342701
0.00376772
0.00407995
0.00380445
0.00280324
0.00201944
0.00152019
0.00191484
0.00401023
0.00678516
0.0111425
0.0156127
0.0119292
0.00664625
0.00404166
0.00255105
0.00171187
0.00214312
0.0041945
0.00940139
0.0201263
0.0249779
0.0160801
0.0072183
0.00394063
0.00236802
0.00167849
0.000584518
0.000965048
0.0033365
0.00989699
0.0140801
0.00970736
0.00423277
0.00221032
0.00128359
0.00108608
0.000562887
0.000517491
0.00105416
0.00249287
0.00346292
0.00257095
0.00119419
0.000632099
0.000407553
0.000538298
0.00182246
0.00143591
0.0011132
0.00120977
0.00125161
0.00101862
0.0006164
0.00017108
1.7338e-05
1.4538e-05
0.00244425
0.0037938
0.00425091
0.00601208
0.00909469
0.0108582
0.00917576
0.00522845
0.00206992
0.000839142
0.000440599
0.002692
0.00450669
0.00570553
0.00848747
0.0107246
0.0095251
0.00601552
0.00286403
0.0017116
0.000224272
0.00127379
0.00390704
0.00484389
0.00493727
0.00422311
0.00228297
0.000824953
0.000302607
0.000283119
0.000753319
0.00166913
0.00605073
0.011083
0.0125035
0.00794097
0.00183656
2.36698e-05
9.33305e-06
2.07838e-05
0.00341732
0.0106786
0.0312413
0.0462246
0.0334197
0.00857362
0.000769321
0.00228394
0.00250202
0.00166496
0.0313356
0.0712544
0.105066
0.0876471
0.0482422
0.0226298
0.0124774
0.0079871
0.00473849
0.00268981
0.113857
0.249484
0.324395
0.234017
0.150268
0.108476
0.0681517
0.0400998
0.0154321
0.00226275
0.118691
0.298999
0.539197
0.664146
0.640066
0.571388
0.518378
0.41458
0.228402
0.0952688
0.00878194
0.0301139
0.105314
0.269884
0.528888
0.863962
1.19105
1.11882
0.502451
0.0858254
0.259856
0.362665
0.309641
0.086437
0.00303909
0.0763237
0.16482
0.107349
0.00791756
0.0164295
1.48742
2.39767
2.71215
2.01668
1.09587
0.581524
0.475707
0.631599
1.08732
1.88709
1.20813
1.85012
2.25526
2.49264
3.44213
4.61475
4.89857
4.68699
4.40767
4.12299
0.539684
0.930998
1.87334
3.95511
6.12723
6.37724
5.41372
4.90355
4.50663
3.45394
0.339373
0.9958
2.54049
4.80566
6.06082
5.14106
4.07937
3.68495
3.43932
2.27146
0.384615
1.27147
3.05346
5.18866
6.0094
5.05338
3.98998
3.40785
2.86157
1.6878
0.894448
2.27573
4.28713
6.0902
6.31635
5.32599
4.29736
3.54769
2.75526
1.61654
1.97856
3.38552
4.56309
4.99394
4.41398
3.54847
2.78827
2.25301
1.70265
1.09955
1.43561
1.70963
1.56899
1.2199
0.82938
0.51351
0.322266
0.2395
0.17537
0.116863
0.173282
0.166474
0.097238
0.0230835
0.000751888
0.00974381
0.0374741
0.0384063
0.0238671
0.01086
2.34736e-05
1.85939e-05
1.09697e-05
5.86418e-06
4.48137e-06
4.75708e-06
6.27724e-06
1.27951e-05
2.24865e-05
2.93247e-05
1.08874e-06
1.94965e-06
3.3581e-06
2.05689e-06
4.33599e-07
1.79266e-06
5.76548e-06
4.81197e-06
2.10752e-06
4.82037e-06
9.22945e-05
8.45316e-05
1.52628e-05
3.46984e-07
1.17687e-06
2.73111e-06
1.0807e-05
0.000139261
0.000389859
0.000280308
1.22079e-05
3.22581e-05
1.46009e-05
3.61556e-07
4.31525e-06
1.41857e-07
5.17684e-05
0.000241143
0.000206778
7.8641e-05
4.3862e-06
1.77969e-05
4.94554e-05
4.67171e-05
3.33922e-05
2.07292e-05
3.3586e-05
2.80965e-05
1.27911e-06
3.51026e-07
0.00019567
0.000211047
0.000301143
0.000388
0.000335815
0.000252973
0.000203149
0.000131587
6.45568e-05
2.96234e-05
0.000631728
0.00073241
0.000868611
0.00108665
0.00131583
0.0013127
0.00102983
0.00060791
0.000210108
8.19065e-05
0.000268328
0.000488718
0.000751728
0.00106641
0.00137109
0.00140856
0.00103966
0.000557993
0.000200004
0.000130876
0.000143708
0.000325089
0.000610309
0.00102388
0.00157585
0.00184504
0.00135647
0.000736531
0.000340094
0.000210409
0.000265357
0.000557214
0.00120695
0.00214417
0.00364819
0.00437988
0.00303596
0.00177317
0.00100873
0.000500819
0.000338446
0.000633971
0.00107159
0.00191803
0.00340024
0.00445041
0.00405384
0.00283744
0.00130553
0.000347716
0.000585828
0.00123114
0.00207965
0.00375541
0.00705728
0.00903296
0.0097795
0.00980759
0.00683428
0.00227632
0.00296755
0.00566824
0.0103159
0.0155422
0.0198972
0.0225433
0.025893
0.0251672
0.0177902
0.00953018
0.00403518
0.00580207
0.0098468
0.0143975
0.0184073
0.0237574
0.0294907
0.0248267
0.0140971
0.00891334
0.00110036
0.00147518
0.00238385
0.00375639
0.00564151
0.0076939
0.00777751
0.00430004
0.00302029
0.00244765
0.00127299
0.00165894
0.00233488
0.00398311
0.00598894
0.00769109
0.00754893
0.00542547
0.00357101
0.00235922
0.00929063
0.0118738
0.0132407
0.0192698
0.0283694
0.0276527
0.0181398
0.0116165
0.00751492
0.00457766
0.064947
0.101875
0.120414
0.123737
0.110444
0.0850497
0.0586799
0.0330499
0.0143001
0.00533985
0.0742981
0.116412
0.17133
0.214353
0.209707
0.147481
0.0815682
0.0431697
0.0218355
0.00734989
0.00748942
0.0137692
0.0250236
0.0398494
0.0529666
0.0544073
0.0414984
0.0241917
0.0123051
0.00577588
0.00021972
0.000608857
0.00204764
0.00529325
0.00982002
0.0124457
0.0104436
0.00487886
0.00154004
0.000906907
0.00109534
0.0030406
0.00645169
0.0125695
0.0190637
0.0210534
0.015334
0.00656193
0.00201905
0.000839541
0.00488566
0.00922313
0.0152961
0.0223303
0.0278994
0.0256155
0.0174893
0.00945418
0.00434668
0.00194648
0.00352802
0.00564665
0.00827803
0.0123319
0.0155893
0.0166043
0.0149171
0.0102496
0.00536955
0.00260445
0.000126418
0.000231015
0.000478992
0.0010768
0.0023227
0.00437618
0.00598638
0.0051235
0.00312839
0.0015211
0.000108288
0.00010756
5.76668e-05
0.000125998
0.000788845
0.00274814
0.00454155
0.00367452
0.00235847
0.00107214
4.66232e-05
1.15891e-05
2.9246e-05
0.00047859
0.00186592
0.00394677
0.00509898
0.00518846
0.00445832
0.00234574
0.000128013
0.000264781
0.000595251
0.0014602
0.00268397
0.0038582
0.00486089
0.00565613
0.00513199
0.00273338
0.000261875
0.000387337
0.000690725
0.00178522
0.00374566
0.00524715
0.00502643
0.00389402
0.00254012
0.00106198
0.000115327
0.000232396
0.000254957
0.000746828
0.00254212
0.00527342
0.00622906
0.00448801
0.00220533
0.000859489
1.56572e-06
4.55732e-05
5.24027e-05
4.7414e-05
0.000431336
0.00192953
0.0042012
0.00493541
0.00343596
0.00194891
6.50219e-05
2.89967e-06
1.28281e-05
1.45184e-05
2.35518e-05
0.000132426
0.000306409
0.00057658
0.00080108
0.00104133
0.000268243
0.000501899
0.000245725
0.000230901
0.000408303
0.00056061
0.000446449
0.000211765
3.80769e-05
1.21682e-05
0.00156593
0.0034934
0.00460737
0.0047931
0.0042783
0.00322398
0.00217384
0.00129286
0.000660361
0.000305755
0.00261238
0.00499799
0.00639333
0.00650982
0.00537655
0.00347801
0.00175619
0.00101294
0.000935103
0.00112142
7.50023e-05
0.000232422
0.000596243
0.000843587
0.000783057
0.000572569
0.000579509
0.00107027
0.00181982
0.0034249
0.00421699
0.00950044
0.013338
0.0126397
0.011296
0.0127541
0.0150942
0.0165085
0.0160692
0.0194112
0.0164781
0.0323604
0.0438321
0.0487138
0.05938
0.0768393
0.0892705
0.088312
0.0759818
0.0741235
0.000390637
0.00106664
0.00190616
0.00219947
0.00354878
0.00901671
0.0202271
0.0329952
0.0433085
0.0728196
0.126069
0.23826
0.363066
0.49404
0.509291
0.393332
0.220525
0.0780225
0.0169097
0.00566086
1.37912
2.27158
3.08134
3.6943
3.87002
3.58822
2.93985
2.01334
1.04573
0.332646
2.42692
3.44179
4.20786
4.63384
4.70288
4.51426
4.08032
3.32104
2.22199
1.22538
1.69019
2.2939
2.6906
2.864
2.87256
2.77919
2.55101
2.14102
1.56227
1.12019
0.849919
1.12828
1.29961
1.40051
1.47396
1.4981
1.40047
1.16451
0.836496
0.592009
0.493461
0.65376
0.728586
0.785954
0.86778
0.907892
0.838548
0.649527
0.420769
0.282645
0.47836
0.610766
0.601918
0.592026
0.653148
0.713738
0.706201
0.587581
0.394119
0.266142
0.823655
1.05532
0.927001
0.785207
0.83058
1.00011
1.1942
1.23251
1.00715
0.715831
1.64015
2.05946
1.82816
1.47403
1.46456
1.75196
2.20378
2.50695
2.3633
1.881
2.23303
2.82681
2.87707
2.54586
2.29192
2.2106
2.27476
2.28134
1.99237
1.5415
1.74929
2.37337
2.96049
3.14509
2.85999
2.28294
1.64238
1.09585
0.653206
0.329946
2.8662e-05
2.12269e-05
1.11695e-05
5.16772e-06
3.75157e-06
3.37669e-06
4.62526e-06
1.00202e-05
1.86505e-05
2.3926e-05
1.0162e-06
7.73633e-07
3.57575e-06
4.02377e-06
1.23688e-06
2.45297e-07
1.09902e-06
3.21537e-06
2.61933e-06
1.37473e-06
0.000397745
0.00050126
0.000201856
2.68687e-05
4.39669e-06
1.06886e-07
1.41745e-06
7.91427e-06
4.49221e-05
7.18679e-05
6.30766e-05
0.000152425
0.000188978
5.85626e-05
6.55136e-07
3.15623e-06
6.0095e-06
1.78952e-05
3.69338e-05
1.9151e-05
6.65076e-06
6.32435e-06
1.1666e-05
9.86812e-06
3.81292e-06
2.32237e-05
5.86565e-05
7.80277e-05
4.68144e-05
1.17784e-05
4.34393e-05
0.000132473
0.000269606
0.000322266
0.00031131
0.000309652
0.000313336
0.000309263
0.000260724
0.000220779
8.47068e-05
0.000276445
0.000917592
0.00159577
0.00187139
0.00174197
0.00139866
0.0012238
0.00105344
0.000687936
0.000171237
0.000209271
0.000597162
0.00129293
0.0018688
0.00188746
0.00149629
0.00112526
0.000745831
0.000314176
0.000503657
0.000762259
0.00108031
0.00171093
0.00249618
0.002355
0.00150867
0.000868967
0.00047693
0.000171732
0.000809004
0.00163065
0.00233826
0.00306589
0.00450372
0.00462283
0.0026481
0.00127757
0.000620096
0.0002813
0.000401315
0.00124964
0.00233106
0.00268556
0.00308012
0.00297349
0.00184196
0.00103021
0.00061981
0.0003366
0.00159321
0.00559492
0.00827269
0.00757371
0.00695291
0.00580884
0.00340295
0.001936
0.00112196
0.000563548
0.00658223
0.0132586
0.0176168
0.0166579
0.016078
0.0158186
0.0135664
0.00985778
0.00596684
0.0031372
0.00500401
0.00771315
0.012977
0.0149378
0.013664
0.0130216
0.0122168
0.00978234
0.00732801
0.00515474
0.00219193
0.00270809
0.0040324
0.00561232
0.0055183
0.00458688
0.00373203
0.00262205
0.00212146
0.00152727
0.00280683
0.00394476
0.0057696
0.00743121
0.00655385
0.00568455
0.00380159
0.00254871
0.00222618
0.00156392
0.00468105
0.00758383
0.0115439
0.0181639
0.0256851
0.0232722
0.0153808
0.0110348
0.0107199
0.00905849
0.00539505
0.013154
0.0293018
0.0536899
0.0726103
0.0856177
0.0948972
0.0983082
0.0911521
0.0640652
0.00720035
0.0189648
0.0335134
0.0535208
0.0848179
0.116462
0.134562
0.127985
0.103484
0.072499
0.00487224
0.0087187
0.0156586
0.0265577
0.0364836
0.0368398
0.0285155
0.0186603
0.0118292
0.00743754
0.00092345
0.00121614
0.00331619
0.00770498
0.00928234
0.00740748
0.00416237
0.00160456
0.0003919
0.000136276
0.00119802
0.00237071
0.00544402
0.0121819
0.0197613
0.0184645
0.0114546
0.00547597
0.00248649
0.000973858
0.00264083
0.00578395
0.0097017
0.0155752
0.0228737
0.0257571
0.0217753
0.0153197
0.00916445
0.00474259
0.00275732
0.00629206
0.0106664
0.0131986
0.0144981
0.0139486
0.0113191
0.00817264
0.00519582
0.00318556
0.00109063
0.00270155
0.00489213
0.00562551
0.00425619
0.00222916
0.000943805
0.000374588
7.13006e-05
5.16589e-05
0.000139546
0.000520287
0.00127325
0.0018515
0.00094689
0.000127763
4.21519e-07
7.4148e-05
0.000327956
0.000210911
7.95526e-05
0.000316698
0.00058428
0.000895957
0.000629356
0.000112281
3.49605e-06
0.000182132
0.000480235
0.000187151
0.000651291
0.0017504
0.00233757
0.00269383
0.00246485
0.00156244
0.000425159
6.64225e-06
5.07258e-05
6.03998e-05
0.00229499
0.00473687
0.00493714
0.00388888
0.00270512
0.00148195
0.000432837
6.94253e-06
2.08655e-05
9.21938e-05
0.00244221
0.00632883
0.00868232
0.00759718
0.00486125
0.00272592
0.0011331
0.000336419
5.01455e-05
1.31605e-05
0.00304636
0.00732785
0.0108197
0.0100011
0.00545969
0.00175209
0.000503952
0.000312007
0.000135893
4.10894e-06
0.00197509
0.00494968
0.00819907
0.00771892
0.00441454
0.00148649
0.000153678
3.36178e-05
5.15036e-05
2.36976e-07
0.00097785
0.00481894
0.00923087
0.0103586
0.0081341
0.00369459
0.000830386
0.00018188
0.000195434
0.00012764
9.86708e-05
0.00111236
0.0034492
0.0058607
0.00715267
0.00675641
0.00486234
0.0032252
0.00167326
0.000791864
0.00137591
0.00063453
0.00054202
0.000888504
0.00181089
0.0031717
0.00440594
0.00470383
0.00369408
0.0021967
0.00448298
0.00273811
0.00217357
0.00179934
0.00173451
0.00183147
0.00169008
0.00116006
0.000484892
0.000137547
0.0200344
0.0172193
0.0181498
0.0182894
0.0175905
0.0165006
0.0162013
0.0141146
0.0089017
0.00350474
0.0724831
0.0772449
0.0915645
0.0967627
0.0899618
0.0742839
0.0618258
0.0515182
0.0347301
0.0125263
0.0846607
0.0587463
0.0449716
0.03032
0.0160428
0.00672787
0.00366276
0.00265075
0.00150092
0.000182242
0.00684347
0.00820901
0.0417074
0.149981
0.313388
0.443046
0.4481
0.341767
0.219826
0.137842
0.208003
0.682656
1.47635
2.4036
3.17984
3.59483
3.48511
2.90655
2.1245
1.39885
0.86056
1.56861
2.53206
3.42426
4.03172
4.36188
4.32782
3.89586
3.17539
2.38675
0.841554
1.202
1.74792
2.2524
2.5898
2.75859
2.7279
2.47909
2.06514
1.62867
0.530916
0.703804
0.96004
1.21004
1.3587
1.38345
1.30967
1.17147
0.990772
0.806032
0.411623
0.522615
0.669938
0.764713
0.786923
0.739878
0.648246
0.558248
0.489104
0.424064
0.579353
0.814058
0.967621
0.936712
0.797336
0.632898
0.493498
0.408723
0.379913
0.354247
1.58427
2.1546
2.37102
2.09905
1.56955
1.0623
0.730732
0.582083
0.563264
0.537362
2.53928
3.15009
3.40752
3.09534
2.43814
1.80122
1.39347
1.23957
1.24699
1.15506
1.33329
1.74446
2.03224
2.15055
2.12917
2.13054
2.19389
2.24601
2.16302
1.83486
0.161992
0.341382
0.642512
1.11319
1.7507
2.405
2.81733
2.7817
2.28647
1.64784
2.92233e-05
2.34133e-05
1.48225e-05
1.01544e-05
1.0857e-05
1.23935e-05
1.61376e-05
2.40091e-05
3.10068e-05
3.22781e-05
3.89206e-07
2.36769e-06
3.29663e-06
1.13023e-06
1.29535e-07
1.18163e-06
4.20798e-06
6.97307e-06
5.85426e-06
3.39609e-06
0.000515341
0.000363482
0.00013518
9.90788e-05
6.07335e-05
7.05493e-05
9.36311e-05
0.000157598
0.000264943
0.000279158
1.89408e-05
5.14245e-05
5.63347e-05
3.9746e-05
3.59788e-05
9.63064e-05
0.000206245
0.000298734
0.000236395
9.17435e-05
6.43135e-05
0.000115799
0.000118812
5.58196e-05
8.02638e-06
1.60622e-06
3.24691e-05
6.16163e-05
1.73584e-05
4.5235e-06
1.42019e-06
1.29588e-05
5.16966e-05
5.9144e-05
5.39031e-05
4.74031e-05
2.72049e-05
1.834e-05
1.13096e-05
1.93174e-05
0.000118483
0.000229187
0.000545252
0.000960778
0.00115572
0.00089561
0.000550177
0.0004073
0.0002609
0.000123503
0.00324504
0.0031594
0.00288692
0.00305959
0.00293259
0.00178589
0.000929395
0.000506896
0.00032243
0.000227467
0.0105652
0.0163775
0.0203564
0.0206935
0.0179171
0.0130232
0.00749612
0.00385019
0.00170917
0.000561306
0.0012614
0.00230016
0.00438145
0.00759331
0.00978893
0.0092934
0.00684505
0.00426747
0.00233393
0.00101349
0.000102706
0.000250203
8.42942e-06
0.00016324
0.000814081
0.00136339
0.00130481
0.00087582
0.00052308
0.000319057
0.000348885
0.000735477
0.000763217
0.001001
0.00131581
0.00140732
0.00133048
0.00116671
0.000844491
0.000468281
0.00585283
0.0100182
0.0148263
0.0195036
0.0199845
0.0157364
0.0114428
0.00860579
0.00666014
0.00482858
0.0149963
0.01752
0.0219553
0.026319
0.0250647
0.0191095
0.0132684
0.00997386
0.00813549
0.00528029
0.0140392
0.0166488
0.0185914
0.0211278
0.0192829
0.0162723
0.0135354
0.0103126
0.00666788
0.00303207
0.0167292
0.0218659
0.0253104
0.0290833
0.0258948
0.0210721
0.0170836
0.0130138
0.00837217
0.00372845
0.00987395
0.0133814
0.0189556
0.0241477
0.0255244
0.0229697
0.019149
0.014721
0.00991154
0.00526288
0.00289728
0.00462067
0.0060905
0.00882138
0.0118245
0.0135933
0.0135464
0.0112768
0.00763357
0.00442936
0.000868226
0.00172066
0.00268482
0.00459637
0.00727264
0.00987908
0.0114098
0.00972776
0.00628281
0.0039586
0.00166642
0.0035709
0.00626709
0.0105068
0.0154835
0.0173672
0.0144166
0.0102099
0.00738573
0.00484324
0.0026542
0.00529303
0.00915295
0.0142873
0.016509
0.0137427
0.0088492
0.00516805
0.00354215
0.00166055
0.00368189
0.00660252
0.0105303
0.0146892
0.0153508
0.0118629
0.00694142
0.00381226
0.00276858
0.00140831
0.00437085
0.00722644
0.0112671
0.0146827
0.0148948
0.0123753
0.00836098
0.0053333
0.0042793
0.00256716
0.00354747
0.00514692
0.0074617
0.00903938
0.00833264
0.00689792
0.00580393
0.0046681
0.00392502
0.00248157
0.00187529
0.00197047
0.00230562
0.00257126
0.00203701
0.00128123
0.00102627
0.00113869
0.00129406
0.000841974
0.00152077
0.00142867
0.000960513
0.000695334
0.000435258
0.000190569
0.000131029
0.00015948
0.000171541
9.26984e-05
0.00190756
0.00225956
0.00155002
0.0012471
0.00115773
0.000789332
0.000388897
0.000176847
9.69583e-05
5.23431e-05
0.00245352
0.00409305
0.00410326
0.00395376
0.0038206
0.00315856
0.0021634
0.00120123
0.000501345
0.000209134
0.00212017
0.0041674
0.00473979
0.00454782
0.00436375
0.00409081
0.00354447
0.00255722
0.00142946
0.000980293
0.00112766
0.00211331
0.00241319
0.00204365
0.00168774
0.00185507
0.00222449
0.00180786
0.0011825
0.00107766
1.61923e-05
1.6984e-05
8.35867e-06
1.09755e-05
0.000408977
0.00190917
0.00340178
0.00264018
0.00152947
0.00149863
0.00103798
0.00180861
0.0027467
0.00237734
0.000522032
0.000645756
0.00171088
0.00152912
0.000938114
0.00105181
0.00276835
0.004485
0.00612361
0.00663599
0.00557491
0.00408559
0.00223981
0.000955975
0.000534824
0.000527898
0.00109317
0.00259418
0.004032
0.0051616
0.00748604
0.00987676
0.00762435
0.00305478
0.000733676
0.000163798
7.17954e-05
0.000868914
0.00247644
0.00437717
0.00429638
0.0043748
0.00587669
0.00425308
0.00223431
0.00158954
0.00133149
0.000775332
0.000137261
0.00269396
0.0154859
0.0272768
0.0228359
0.0128341
0.00651477
0.00415492
0.00370297
0.00630775
0.00932256
0.0158244
0.0350255
0.0646002
0.0860778
0.0820543
0.0549756
0.028196
0.00173536
0.0153484
0.0457317
0.0837971
0.134331
0.185631
0.265146
0.297633
0.214824
0.104505
0.0818822
0.197365
0.380181
0.507224
0.59017
0.676311
0.676215
0.513059
0.283164
0.123991
0.071719
0.455317
1.03706
1.16084
0.875209
0.554917
0.287853
0.115629
0.0325067
0.00998915
0.0262251
0.00314566
0.067478
0.121998
0.0735276
0.00603696
0.0351631
0.181906
0.244899
0.177697
2.16005
1.41046
0.91953
0.739718
0.727349
0.908404
1.31259
1.71511
1.56929
0.994571
4.45157
5.10061
5.67805
6.10836
5.94223
4.64055
2.83443
1.88414
1.37835
0.866958
3.62443
5.12462
6.0372
6.69235
7.44481
7.33348
5.29608
2.88821
1.36762
0.58541
2.32325
3.69611
4.53777
5.10699
5.87181
6.33549
5.40464
3.32543
1.56067
0.564747
1.70293
2.80521
3.75101
4.44016
5.15619
5.59119
4.90852
3.26294
1.70209
0.669047
1.57948
2.52816
3.47883
4.19019
4.88103
5.36857
5.1121
4.04002
2.75581
1.50331
1.06968
1.55659
2.08937
2.54627
3.08415
3.60971
3.98505
3.96528
3.48911
2.45546
0.110101
0.150791
0.208424
0.276169
0.429086
0.649768
0.960414
1.25692
1.38588
1.20665
0.011256
0.0241454
0.0314588
0.0252173
0.00463557
6.80681e-05
0.0122796
0.0471115
0.0750667
0.082012
)
;
    }
    inlet
    {
        type            calculated;
        value           uniform 0;
    }
    outlet
    {
        type            calculated;
        value           uniform 0;
    }
}


// ************************************************************************* //
