/*--------------------------------*- C++ -*----------------------------------*\
| =========                 |                                                 |
| \\      /  F ield         | OpenFOAM: The Open Source CFD Toolbox           |
|  \\    /   O peration     | Version:  2406                                  |
|   \\  /    A nd           | Website:  www.openfoam.com                      |
|    \\/     M anipulation  |                                                 |
\*---------------------------------------------------------------------------*/
FoamFile
{
    version     2.0;
    format      ascii;
    arch        "LSB;label=32;scalar=64";
    class       volVectorField;
    location    "0.1";
    object      momentError;
}
// * * * * * * * * * * * * * * * * * * * * * * * * * * * * * * * * * * * * * //

dimensions      [0 1 -2 0 0 0 0];

internalField   nonuniform List<vector> 
25000
(
(-70.8249 -72.5776 413.118)
(-64.5114 -18.7883 752.995)
(-140.79 60.6543 428.645)
(-134.93 112.116 -16.8542)
(-70.5819 139.331 -106.948)
(1.45432 123.997 30.2049)
(39.109 80.1698 355.815)
(32.7511 32.7501 553.707)
(47.0302 -12.4384 389.593)
(53.7686 -39.9429 137.291)
(-30.9136 -41.0105 648.451)
(-35.9521 -13.2438 694.601)
(-106.856 15.4476 317.722)
(-118.06 59.3527 -52.0101)
(-70.7004 107.493 -94.5338)
(-14.7714 100.835 40.9995)
(0.923261 68.7867 349.156)
(-3.25239 51.7048 557.616)
(13.9 15.3138 369.418)
(29.4168 -12.4665 177.215)
(20.9419 -69.453 284.891)
(-10.7733 -53.9758 219.102)
(-64.2213 -28.8189 21.7107)
(-78.3326 10.103 -100.879)
(-43.7708 38.3799 -79.7906)
(-6.28523 44.9743 -10.0378)
(-5.19757 23.5953 174.887)
(-18.8895 28.8739 352.406)
(-17.4241 35.8969 263.039)
(-15.7341 14.9917 158.308)
(78.1569 -39.4857 -54.3091)
(32.7826 -32.5734 -95.7437)
(-28.2214 -11.5437 -120.177)
(-62.449 -3.74082 -100.268)
(-46.6309 -11.2898 -56.6277)
(-15.7836 -15.6625 -28.6168)
(-10.9015 -23.7549 26.6347)
(-40.0199 -15.3658 138.885)
(-71.8971 7.32719 247.831)
(-105.634 24.9566 305.686)
(119.65 18.549 -144.338)
(74.5597 19.3132 -149.709)
(-1.7039 30.1868 -141.719)
(-62.927 22.2219 -101.36)
(-72.3443 -12.661 -16.8729)
(-49.2006 -39.0075 13.8034)
(-36.2664 -41.6752 20.2414)
(-47.9169 -19.578 41.3115)
(-87.5658 10.8986 99.1442)
(-126.342 33.193 172.057)
(124.578 83.0457 49.3575)
(74.7529 74.7637 36.9025)
(-2.19755 75.3188 -40.675)
(-69.8248 61.0503 -75.5377)
(-86.2376 18.6006 -20.6678)
(-59.4705 -5.29157 3.78582)
(-26.2413 6.35061 -11.0034)
(-25.4447 48.7378 -13.2461)
(-79.048 82.7543 24.8941)
(-126.532 91.34 79.0565)
(93.2306 94.0834 509.774)
(60.0176 68.8787 528.482)
(-27.6617 74.6532 250.39)
(-94.598 62.7769 32.8925)
(-86.5028 35.4521 -13.628)
(-41.0018 29.5489 -13.4486)
(15.7286 61.9118 -25.3624)
(26.9088 116.69 92.2828)
(-51.9407 160.085 237.288)
(-109.666 162.568 258.065)
(54.2175 60.2142 678.618)
(58.6022 31.3801 796.029)
(-12.0649 25.7132 571.419)
(-88.1284 3.49277 253.61)
(-77.7472 -2.79975 55.3999)
(-12.1389 5.83481 8.76297)
(60.8389 41.6463 90.0955)
(73.6852 89.3053 407.513)
(-9.09959 122.867 602.812)
(-45.5727 139.382 538.642)
(8.14682 73.7584 418.862)
(6.6581 48.9498 484.298)
(-7.0877 13.2021 478.149)
(-53.3435 -39.5904 308.933)
(-57.337 -65.5424 126.154)
(6.87406 -63.4668 50.2332)
(83.3164 -43.9758 203.012)
(88.6738 -10.1086 543.648)
(32.9727 33.919 670.022)
(39.8327 80.2459 431.811)
(-11.455 90.2025 155.166)
(-21.6171 64.5218 235.903)
(-26.1645 16.232 277.035)
(-50.9058 -79.1887 341.709)
(-44.7846 -115.231 180.126)
(5.52677 -117.249 87.2346)
(74.536 -92.518 224.795)
(89.2314 -48.4265 459.986)
(67.7396 22.6334 350.834)
(78.1016 64.186 128.607)
(129.186 239.49 278.103)
(113.529 146.673 394.755)
(153.813 222.23 745.071)
(-102.481 187.619 301.032)
(-191.654 215.231 -213.176)
(-163.069 237.386 -278.191)
(-196.289 238.964 -232.371)
(-187.453 202.885 -266.117)
(-172.025 156.491 -340.272)
(-173.063 156.313 -334.594)
(48.753 187.711 -52.571)
(91.202 127.657 12.2535)
(146.357 171.818 438.692)
(-11.1077 182.948 145.725)
(-155.052 191.107 -185.505)
(-215.942 231.603 -240.015)
(-206.929 260.358 -348.812)
(-138.553 268.775 -649.96)
(-70.2292 144.188 -897.096)
(-1.07476 80.3264 -669.932)
(83.2725 154.657 -105.449)
(157.423 181.004 36.9732)
(126.921 118.222 190.289)
(21.6959 81.1087 -44.8943)
(-105.219 132.269 -209.898)
(-184.83 197.454 -164.173)
(-192.348 275.093 -365.47)
(-196.271 305.317 -811.409)
(-121.223 175.63 -980.759)
(-10.2329 106.529 -726.81)
(80.0578 -17.7286 -141.703)
(118.12 39.7357 -83.585)
(69.2355 30.334 -105.328)
(28.5225 30.1136 -235.307)
(-10.3004 114.226 -304.675)
(-64.4805 208.087 -230.575)
(-124.497 265.159 -324.038)
(-172.635 348.22 -640.779)
(-142.884 376.113 -1076.07)
(-27.4964 190.193 -942.657)
(207.858 -91.1407 -133.577)
(200.238 -76.2122 -35.732)
(130.209 -28.9149 -120.922)
(98.7637 36.8134 -298.781)
(135.027 159.219 -489.229)
(132.961 300.934 -460.513)
(63.691 379.162 -426.36)
(-67.7562 482.942 -564.182)
(-128.813 496.953 -800.312)
(-100.598 282.456 -850.438)
(289.902 -134.219 23.434)
(306.673 -155.973 107.148)
(234.018 -91.4063 18.5761)
(185.455 9.85289 -202.749)
(237.317 140.531 -458.52)
(280.151 294.092 -471.094)
(186.029 352.829 -238.859)
(-7.08024 359.73 39.7216)
(-152.25 348.611 113.592)
(-172.292 316.896 -269.887)
(308.792 -179.844 27.241)
(400.425 -159.839 89.3031)
(389.458 -95.4891 36.7631)
(314.538 -39.9461 -233.083)
(278.251 51.9567 -416.975)
(272.643 156.764 -303.66)
(137.298 161.62 349.665)
(-102.319 113.867 1005.25)
(-208.564 116.914 1091.73)
(-227.88 179.696 191.352)
(252.251 -168.138 37.261)
(352.605 -92.8078 -142.838)
(432.037 -72.8049 -283.472)
(405.176 -77.2188 -572.183)
(358.241 -43.2168 -567.988)
(238 13.8538 -235.453)
(44.2817 -43.1883 631.874)
(-178.025 -132.943 1250.83)
(-213.928 -59.6273 1097.43)
(-203.904 19.7407 390.644)
(221.166 -153.774 -114.671)
(193.794 -22.2921 -473.871)
(276.672 -19.0329 -737.61)
(324.386 -57.4244 -921.441)
(360.829 -64.787 -849.474)
(214.733 -62.5159 -391.312)
(15.1259 -110.913 276.735)
(-86.518 -144.66 607.927)
(-138.925 -111.069 604.675)
(-263.422 -115.111 312.484)
(246.513 -187.593 -180.109)
(136.158 -16.6265 -435.748)
(141.431 18.86 -733.776)
(176.796 -6.6838 -914.212)
(182.138 -69.5252 -810.822)
(188.221 -112.132 -510.356)
(112.1 -128.487 -442.018)
(-19.845 -153.517 -279.586)
(-137.844 -221.88 1.0271)
(-305.459 -303.469 37.4681)
(12.5892 117.742 -129.968)
(-17.3578 60.3458 -89.8582)
(-10.4237 83.588 512.438)
(122.01 379.313 700.751)
(110.858 479.268 -64.9651)
(145.121 370.676 -682.161)
(256.258 229.952 -1052.96)
(403.627 58.4522 -1727.98)
(375.163 -110.805 -2058.9)
(189.036 28.0779 -1099.79)
(-48.918 -114.632 -346.057)
(-5.03603 -23.2998 -794.112)
(125.826 202.071 -566.449)
(288.857 427.498 54.737)
(257.402 450.186 -390.067)
(184.807 342.732 -797.938)
(94.8396 211.573 -1112.62)
(163.51 106.053 -1560.11)
(532.7 93.6028 -2191.41)
(385.389 133.949 -1582.19)
(15.3772 -8.31866 363.508)
(-0.456594 37.0392 -472.75)
(197.321 260.18 -757.66)
(314.771 397.269 -371.494)
(301.425 441.366 -690.041)
(138.407 357.019 -760.272)
(-76.0892 214.897 -758.333)
(-86.5018 302.698 -1366.08)
(141.966 375.704 -1922.71)
(100.4 134.437 -1215.82)
(228.752 144.143 -375.872)
(189.33 377.766 -625.081)
(374.489 438.367 -761.702)
(413.44 438.365 -823.547)
(341.384 449.628 -1049.31)
(168.794 397.127 -637.875)
(18.2403 326.602 -319.362)
(-12.294 187.016 -387.386)
(48.7821 73.3045 -535.029)
(-35.157 38.5561 -576.708)
(396.834 139.082 -392.019)
(373.142 311.493 -765.345)
(431.287 373.992 -919.402)
(425.681 394.893 -1017.06)
(314.546 375.259 -949.139)
(181.27 322.524 -498.725)
(129.848 293.913 -0.310144)
(187.693 233.042 586.865)
(239.577 141.522 834.743)
(-29.2198 73.4238 176.165)
(350.169 199.814 -718.684)
(306.91 256.964 -778.254)
(377.802 223.424 -551.01)
(399.544 276.611 -478.532)
(263.849 316.003 -480.98)
(26.9664 186.207 -91.705)
(-88.7451 15.4504 858.857)
(-39.3782 -76.854 1897.79)
(137.264 22.8016 1918.29)
(130.271 207.761 1048.26)
(214.114 319.647 -962.379)
(64.0927 249.845 -1045.44)
(147.84 126.096 -398.09)
(240.445 176.208 -0.112486)
(214.135 332.346 88.1263)
(-113.716 220.76 725.627)
(-278.835 -60.1762 1893.6)
(-256.764 -159.137 2393.03)
(-45.0864 -147.517 1905.51)
(180.267 113.776 1371.11)
(41.6644 504.667 -1459.2)
(-70.8389 310.161 -1538.96)
(122.382 131.638 -657.612)
(77.3342 133.379 106.932)
(103.127 381.111 812.014)
(-101.345 240.365 1609.17)
(-218.807 -36.4853 2256.66)
(-125.72 30.0832 1362.23)
(79.4088 -29.1306 930.292)
(193.807 23.0133 991.687)
(-110.179 275.297 -1126.02)
(21.9144 370.413 -1392.14)
(213.959 151.467 -1188.24)
(-22.059 105.107 15.911)
(11.2862 242.27 944.943)
(-0.1354 144.921 1621.42)
(-91.479 63.5564 1626.08)
(-99.4891 176.593 772.875)
(42.0678 138.967 683.126)
(100.988 76.2726 966.377)
(-40.4152 94.4328 -258.518)
(65.7122 194.428 -754.486)
(69.7206 -12.0537 -671.609)
(-23.8795 31.8339 399.401)
(28.0466 108.874 655.578)
(93.0354 100.435 910.193)
(41.2568 129.144 1179.96)
(-2.05502 192.777 878.521)
(8.7604 186.894 483.139)
(-130.927 -47.3533 967.589)
(-200.18 -98.8649 20.3677)
(-387.067 -269.373 -381.877)
(-424.54 -335.149 -587.362)
(122.433 -243.621 105.641)
(305.641 77.6931 47.7529)
(350.708 167.677 -59.5952)
(340.913 47.5925 -751.175)
(263.473 -183.279 -932.09)
(190.93 -340.766 -412.282)
(407.224 -507.784 43.2388)
(-404.288 -343.908 -316.946)
(-445.341 -329.065 -297.184)
(-486.21 -301.749 -534.896)
(-187.697 -223.567 37.1869)
(116.38 166.381 -250.382)
(236.362 220.99 -701.445)
(269.778 153.931 -824.665)
(191.344 -80.6407 -741.593)
(76.0506 -213.181 -809.964)
(-8.44741 -361.433 -359.38)
(-287.509 -643.188 347.96)
(-279.272 -511.328 313.317)
(-341.929 -272.114 -175.84)
(-159.694 26.5929 -129.439)
(48.4442 260.506 -342.604)
(207.407 230.442 -777.475)
(87.9114 -22.1132 -245.088)
(-126.275 -110.751 -553.743)
(-154.37 -104.448 -1683.52)
(-531.2 -345.301 -586.946)
(-164.525 -417.556 1865.32)
(-193.189 -364.129 1472.99)
(-223.066 -66.1906 752.13)
(-44.2333 179.835 128.367)
(89.1972 290.148 -742.062)
(2.99388 103.936 -474.637)
(-286.699 -146.316 456.813)
(-460.959 -195.834 282.203)
(-556.893 -376.413 -842.233)
(-741.24 -639.223 -292.788)
(-74.2182 -22.1783 1572.67)
(-144.173 -100.079 753.75)
(-5.78425 73.0809 -155.905)
(82.4742 199.18 -674.938)
(-43.7904 105.403 -586.378)
(-352.251 -165.807 228.331)
(-652.493 -434.277 1373.75)
(-780.646 -653.759 1785.61)
(-732.156 -939.621 319.947)
(-582.098 -793.597 -352.366)
(-13.7844 85.628 698.144)
(-52.3822 -56.0079 -316.398)
(-32.9039 -37.6454 -189.172)
(-59.0906 -38.1389 210.96)
(-263.584 -124.723 483.343)
(-661.552 -453.633 1097.71)
(-1020.99 -675.483 2215.59)
(-981.631 -750.04 1712.28)
(-659.427 -888.161 411.07)
(-291.253 -723.866 -81.0222)
(-120.787 -20.1405 53.6174)
(-107.845 -155.952 -698.982)
(-260.214 -406.02 -92.4778)
(-289.418 -618.125 813.596)
(-409.361 -569.695 1780.74)
(-624.446 -854.282 2479.36)
(-735.754 -620.435 2303.14)
(-215.603 -448.622 302.34)
(126.218 -657.756 -407.175)
(186.314 -704.567 85.4619)
(-320.884 -193.346 -56.2958)
(-165.89 -344.922 -316.521)
(-185.561 -723.295 -530.383)
(-324.382 -1013.18 -177.871)
(-442.42 -1107.85 1505.58)
(-507.678 -982.408 2270.74)
(-450.998 -120.883 579.461)
(11.0599 64.3706 -431.479)
(261.291 -93.1129 -494.338)
(323.534 -389.954 59.0893)
(-401.696 -236.089 210.159)
(-288.641 -317.209 174.892)
(-326.878 -612.632 -266.599)
(-512.338 -883.31 -422.32)
(-601.134 -988.051 173.163)
(-631.547 -656.663 603.531)
(-515.981 134.619 32.367)
(-113.075 257.465 -314.73)
(173.287 219.256 -574.492)
(396.412 -57.4236 -390.612)
(-445.956 77.1848 461.994)
(-376.585 -82.5798 180.383)
(-468.118 -479.551 410.188)
(-636.086 -770.154 570.208)
(-575.326 -673.73 731.377)
(-517.45 -355.47 1013.37)
(-471.696 -56.6136 946.7)
(-314.806 124.215 658.452)
(-55.109 318.516 -147.416)
(347.338 331.92 -287.308)
(161.754 197.896 144.954)
(-46.3526 9.10461 3.40424)
(-505.795 -353.838 -830.881)
(-778.316 -527.855 -1210.08)
(-397.194 -500.603 1294.82)
(-136.806 -318.476 1475.95)
(-173.099 -358.51 1239.97)
(-246.767 -582.243 998.648)
(-172.072 -621.872 427.493)
(-132.881 -475.241 75.5491)
(82.5463 -105.484 954.336)
(7.62012 -185.472 1088.2)
(-291.285 -357.597 234.05)
(-537.344 -617.141 -231.86)
(-361.198 -492.392 1661.09)
(-217.238 -6.30391 1098.42)
(-131.497 -54.6196 731.115)
(-355.696 -255.249 640.078)
(-372.652 -535.138 1054.75)
(-194.779 -593.176 894.083)
(-108.794 -553.369 1771.5)
(-22.0999 -490.384 2124.32)
(-177.861 -531.11 1385.71)
(-322.099 -601.691 965.992)
(-244.615 -471.902 1715.39)
(-243.224 -59.7279 1015.35)
(-441.837 -225.43 708.551)
(-587.139 -214.867 61.1166)
(-545.2 -480.335 806.596)
(-388.986 -713.241 1643.32)
(-236.607 -1225.05 2061.62)
(-181.21 -1203.76 3152.58)
(-411.59 -753.957 2610.61)
(-392.148 -418.497 2127.81)
(-357.299 -300.665 1337.64)
(-518.911 -254.55 752.623)
(-913.79 -411.952 897.069)
(-859.711 -344.964 418.081)
(-591.343 -490.04 724.614)
(-624.928 -857.929 1925.51)
(-393.501 -1292.1 2282.42)
(-365.222 -1112 3939.8)
(-482.04 -423.317 3767.29)
(-324.659 -273.738 1883.16)
(-407.913 -399.422 728.65)
(-755.43 -536.123 959.582)
(-1024.61 -498.869 1954.44)
(-870.659 -489.995 1113.96)
(-465.462 -602.957 -114.202)
(-564.534 -1136.73 1629.97)
(-386.653 -1043.31 2156.69)
(-188.579 -847.548 2876.42)
(-167.625 -518.551 1646.96)
(-334.389 -712.684 816.806)
(-522.946 -746.185 882.561)
(-580.89 -481.034 1969.06)
(-253.408 -18.0344 1900.11)
(-197.408 -222.867 564.054)
(60.5972 -579.886 -1422.06)
(195.964 -850.314 66.1732)
(-487.745 -901.492 1360.66)
(-156.743 -887.468 1535.54)
(152.382 -793.103 227.49)
(83.7526 -861.793 -16.6083)
(-130.552 -883.948 1305.87)
(-129.615 -161.466 1972.62)
(277.393 401.803 -375.926)
(507.24 1.79008 -1353.39)
(294.274 84.6991 -1526.36)
(550.458 -51.1246 -1130.85)
(-596.95 -679.034 -225.526)
(-500.773 -736.422 -252.07)
(-149.53 -677.592 -646.016)
(177.527 -541.43 -111.043)
(-17.7655 -433.31 844.822)
(-254.696 168.213 502.242)
(109.436 691.4 -918.022)
(627.462 541.245 -724.079)
(580.769 328.968 -874.9)
(612.574 165.767 -1369.49)
(-604.178 -410.458 -962.214)
(-591.814 -499.883 -899.361)
(-624.185 -529.031 -675.298)
(-661.638 -518.509 256.194)
(-709.358 -367.549 1029.44)
(-454.438 284.138 27.0911)
(19.063 475.686 -423.157)
(636.791 575.132 -571.643)
(700.632 651.429 -1322.9)
(599.124 286.55 -1703.83)
(-430.823 -180.222 -982.327)
(-650.843 -122.513 -542.93)
(-931.466 -132.959 222.534)
(-1100.82 -175.665 647.78)
(-1036.68 -6.23455 618.513)
(-462.952 320.309 -74.0231)
(49.434 437.428 -612.439)
(387.15 554.823 -969.082)
(515.845 546.254 -1786.17)
(398.802 273.542 -1762.69)
(803.908 650.509 1521.46)
(651.3 206.525 781.088)
(481.085 -279.792 482.772)
(44.695 -386.702 1054.16)
(-493.472 -530.92 1738.22)
(-579.973 -568.113 3073.36)
(-287.693 -86.267 3374.23)
(-162.95 246.688 2785)
(-323.856 212.599 2530.6)
(-729.465 287.401 2829.79)
(695.498 498.807 2014.28)
(466.668 -43.1898 944.979)
(501.578 -454.708 243.799)
(70.3944 -435.127 417.77)
(-431.215 -871.81 788.535)
(-423.809 -771.787 1431.79)
(-500.594 -593.788 2508.49)
(-386.463 -205.454 2026.38)
(-384.971 272.823 1917.96)
(-587.837 356.858 2800.77)
(465.283 654.445 2856.41)
(184.312 17.1223 1457.82)
(292.838 -667.798 312.742)
(-223.254 -784.687 -66.2385)
(-683.013 -1047.09 340.925)
(-348.209 -818.128 2101.31)
(-461.913 -558.163 1921.15)
(-473.462 -461.326 333.231)
(-556.094 41.9585 539.238)
(-485.097 277.998 3101.01)
(335.081 842.144 4326.37)
(-29.0743 -31.2286 2702)
(-492.301 -1252.08 994.203)
(-1219.13 -1441.14 -223.602)
(-557.393 -490.874 1333.58)
(-419.091 -569.249 2642.88)
(-555.198 -446.345 2112.88)
(-280.271 -397.692 -217.668)
(-458.779 -724.828 809.506)
(-340.675 -136.057 2719.79)
(209.34 588.195 4410.63)
(-478.31 -637.679 3356.63)
(-1251.55 -1182.99 895.171)
(-619.36 -360.718 1490.67)
(-269.616 -114.062 1823.64)
(-20.9881 145.423 2777.11)
(393.253 374.564 2963.05)
(238.444 -365.271 398.209)
(-123.847 -1451.91 1631.3)
(-78.8975 -175.734 1197.48)
(-32.1845 165.296 3654.98)
(-1037.8 -784.798 3559.71)
(-1036.37 -677.047 2779.13)
(-521.926 -295.864 2040.13)
(66.3448 278.615 2688.28)
(844.281 1344.28 2646.75)
(1146.71 1001.13 164.703)
(599.939 -16.3671 -1108.7)
(740.466 -518.503 -1131.47)
(52.3964 505.493 -447.427)
(106.322 312.109 2792.01)
(-1107.06 -461.623 2269.85)
(-983.842 -608.119 592.562)
(-251.049 178.637 528.44)
(105.138 930.149 2121.47)
(352.749 1629.88 519.594)
(564.182 943.135 -493.986)
(120.96 514.879 -288.434)
(68.2718 993.71 -1436.08)
(-151.161 701.525 -801.575)
(369.908 69.503 1774.19)
(-239.756 -105.071 1124.8)
(-746.311 -284.158 -1021.2)
(-1207.45 19.5137 -695.456)
(-1132.95 337.595 199.157)
(-556.444 803.146 -907.741)
(188.359 155.212 1005.43)
(-125.27 263.931 1031.84)
(-316.886 558.735 -432.055)
(-255.518 495.971 -185.15)
(319.679 -535.199 1340.33)
(291.66 -379.973 1413)
(-385.274 -484.637 761.693)
(-1297.48 -173.81 386.694)
(-1578.41 565.816 11.6201)
(-244.258 327.68 -1402.41)
(469.451 -382.753 -466.678)
(149.257 -280.983 937.591)
(-91.3107 -62.4987 195.408)
(-343.261 51.8393 -473.903)
(388.003 -742.011 968.357)
(336.851 -679.095 1297.19)
(-31.4864 -475.562 2445.92)
(-358.438 -233.612 1978.51)
(-119.845 -118.686 83.2421)
(526.848 -178.604 -925.98)
(651.334 -354.416 -539.387)
(506.175 -387.812 470.524)
(284.411 -398.327 -200.305)
(-113.559 -335.377 -1662.14)
(684.794 1036.14 3306.52)
(542.585 1425.09 4206.89)
(340.154 1633.3 6160.11)
(-250.963 1371.46 6873.71)
(-581.476 742.05 5017.56)
(-222.059 758.213 4260.18)
(-105.628 827.493 2353.12)
(-62.284 1128.88 3215.55)
(-127.929 1328.75 3321.66)
(-460.814 1149.07 2059.17)
(578.712 636.851 3376.76)
(267.174 1089.14 4302.01)
(145.485 1327.89 6264.68)
(-248.054 1132.55 6779.12)
(-234.98 458.847 5968.63)
(-249.7 491.611 8793.74)
(-266.853 997.799 5902.08)
(16.8933 1764.1 2855.02)
(199.925 1711.9 2188.84)
(-219.34 1785.32 1007.86)
(307.565 240.162 2889.93)
(-159.546 447.815 3409.27)
(116.438 679.085 5409.27)
(444.924 463.013 4703.57)
(83.1853 -474.43 2349.31)
(-529.328 -784.852 3423.59)
(-745.289 -394.737 2891.33)
(-1089.56 1339.18 4134.42)
(-29.9227 2379.49 3356.48)
(130.821 2494.93 718.528)
(147.242 609.173 2455)
(91.4604 1046.67 3843.72)
(917.356 666.767 7499.86)
(424.536 -502.16 3966.25)
(-319.787 -805.21 743.316)
(-303.153 -137.107 3129.99)
(-584.642 -396.289 2576.61)
(-1389.51 -148.434 2136.14)
(-1058.9 1720.31 3817.62)
(258.76 2748.47 1150.61)
(460.667 1107.15 3322.11)
(560.343 1185.08 6021.69)
(-83.041 -244.108 8206.22)
(-997.583 -1015.59 2182.13)
(192.751 373.135 2861.72)
(446.231 649.685 4876.83)
(227.311 -142.154 2297.86)
(-529.609 -1325.88 -486.221)
(-1162.91 294.537 3404.04)
(119.817 2567.56 1986.1)
(961.361 1328.99 3998.38)
(580.221 720.925 6704.52)
(-1119.29 -827.525 4212.96)
(-768.676 -508.356 2363.48)
(-85.2878 690.149 5425.68)
(561.656 1547.55 5055.08)
(-86.7751 239.963 2131.02)
(-818.556 -558.382 -803.825)
(-1116.58 894.723 2730.44)
(-361.986 2345.43 1800.61)
(1331.74 1175.92 4341.81)
(1765.46 634.042 7543.81)
(-436.742 -779.684 2515.01)
(-1367.45 -1263.4 -955.844)
(-1171.14 -279.267 2349.17)
(-1017.57 225.216 2873.21)
(-1547.92 -394.833 2890.97)
(-1357.16 724.973 509.559)
(-1388.66 1670.56 260.923)
(-983.117 1307.13 662.275)
(1222.79 588.503 3946.6)
(2534.23 864.575 6648.64)
(1586.69 -904.124 4297.67)
(-569.06 -1682.67 -556.296)
(-1858.23 -1813.96 -1900.97)
(-813.605 -1829.9 791.06)
(-917.738 -1092.75 892.391)
(-1883.73 -326.275 664.26)
(-1441 329.232 -458.095)
(-1344.15 746.999 1296.51)
(1165.24 116.957 2437.73)
(2059.12 637.125 2540.24)
(2345.83 -49.2982 3729.14)
(1474.65 -1391.47 1524.23)
(858.103 -1631.34 1652.71)
(1176.12 -1508.13 922.151)
(666.235 -1259.67 -691.941)
(-1328 -1485.06 303.26)
(-2342.25 -2038.79 166.35)
(-2381.62 -411.398 761.351)
(1011.85 -344.172 1137.15)
(1746.62 -306.069 378.439)
(2259.84 -134.048 664.343)
(2303.82 -319.414 1400.91)
(2110.32 -373.777 1335.68)
(1401.93 -632.22 611.907)
(903.375 -740.615 1029.06)
(-35.3249 -2035.79 808.754)
(-1740.63 -2974.52 576.041)
(-1700.72 -1366.3 -300.214)
(-233.434 422.676 7700.21)
(-264.181 831.404 8050.3)
(-615.264 970.574 6258.31)
(-561.839 577.644 5417.11)
(-20.9084 -65.4824 3718.11)
(283.33 -230.816 2619.38)
(477.579 -151.48 1416.69)
(815.652 299.604 1123.36)
(834.002 765.505 719.509)
(386.961 837.77 -498.82)
(11.4438 242.155 6759.08)
(-100.488 697.313 5553.52)
(-828.325 845.438 5694.61)
(-791.459 533.656 6264.72)
(-109.428 -87.1041 4129.17)
(680.862 -83.1368 2236.28)
(1611.58 -233.04 -497.909)
(1499.53 -0.921087 -996.045)
(1106.56 1083.98 -994.028)
(713.847 1222.81 -1693.95)
(89.5718 -328.685 4262.1)
(-137.243 74.2796 2628.99)
(-921.643 490.658 3932.24)
(-946.576 634.667 7110.29)
(-256.804 707.046 8193.18)
(-42.4143 561.343 7931.71)
(32.2865 1239.38 7960.52)
(1693.19 1515.24 2614.15)
(1936.14 1578.13 -2060.22)
(878.997 1602.26 -1860.72)
(-223.117 -472.663 2814.55)
(-541.901 254.195 1055.43)
(-542.566 744.25 2147.69)
(182.126 832.174 6198.16)
(290.65 380.013 5895.05)
(-245.625 212.514 3784.17)
(-1390.34 574.745 4334.98)
(-1267.61 1958.55 7230)
(1650.67 2660.03 1038.76)
(872.767 2014.2 -1497.56)
(-545.198 60.3663 2604.21)
(-377.466 918.448 1705)
(323.847 905.216 5793.79)
(869.409 108.555 7978.56)
(-146.96 -348.27 3582.74)
(343.023 1035.21 4543.42)
(-1062.93 351.066 3067.51)
(-2514.46 552.181 4392.42)
(-200.464 3180.55 4483.47)
(647.836 2514.23 -926.578)
(-584.161 509.099 2720.89)
(472.938 1532.68 3541.32)
(1245.06 689.181 10606.3)
(-104.252 -960.413 5838.28)
(-105.707 -134.433 3232.01)
(-275.513 220.258 2923.6)
(-1494.71 -753.834 85.6291)
(-2145.05 -149.526 1394.13)
(-1102.97 3223.74 6078.18)
(-380.852 3459.66 391.813)
(-385.156 616.486 2022.8)
(928.924 2103.35 3029.55)
(1933.17 314.363 9459.63)
(219.839 -1891.16 3583.53)
(-725.4 -1680.94 905.04)
(-2198.38 -2825.4 -1177.34)
(-2840.05 -1642.02 434.646)
(-1976.94 694.608 87.0556)
(-1306.05 3261.84 4381.19)
(-1678.58 3128.22 619.379)
(198.199 687.168 1294.59)
(454.314 2281.15 -969.812)
(2356.4 1176.45 7979.1)
(2031.76 -1770.28 6376.83)
(-367.052 -2871.58 808.069)
(-1010.22 -3200.01 -1106.3)
(485.434 -1806.84 -388.527)
(-505.916 769.219 -507.302)
(-2300.91 1980.27 344.824)
(-2816.5 1322.97 -855.535)
(846.98 605.725 892.707)
(1070.87 1139.21 -1359.97)
(2117.31 2462.92 419.043)
(2694.69 799.418 4229.78)
(2921.15 -724.793 4729.16)
(3179.62 -674.823 4843.7)
(3213.92 -1414.46 2474.13)
(684.931 -2823.17 -2422.85)
(-2088.82 -749.882 -3525.1)
(-2471.72 -808.767 -2497.99)
(875.528 209.933 -252.485)
(1215.68 417.093 -1254.3)
(1592.03 709.356 -1389)
(1779.11 978.799 -415.504)
(2340.42 344.031 328.974)
(2769.18 -703.66 698.311)
(2054.94 -2437.07 162.266)
(-137.016 -3303.96 -1504.85)
(-1785.4 -2694.64 -4042.53)
(-1727.44 -1506.26 -2948.8)
(-402.226 -261.655 7298.7)
(-67.5023 -322.009 8296.32)
(337.851 -76.2956 6384.25)
(451.342 -214.071 2592.87)
(170.05 -364.976 1678.71)
(-35.3726 -417.715 2772.77)
(50.4806 -320.144 3299.44)
(280.376 -174.186 3263.02)
(478.102 30.2971 1913.01)
(722.482 306.469 93.2425)
(-395.169 -35.127 7774.99)
(145.722 131.247 7321.02)
(294.166 450.039 3415.06)
(756.24 -227.469 -170.776)
(1569.8 -883.978 -1483.9)
(2153.9 -1040.93 -847.635)
(2223.51 -570.933 1046.18)
(1657.25 290.894 1549.96)
(735.695 452.905 674.31)
(600.192 115.795 715.579)
(-188.067 53.3026 6404.39)
(619.382 200.362 5188.03)
(376.5 647.438 2847.75)
(314.364 648.21 1871.58)
(1140.31 359.155 1252.37)
(1668.52 1163.61 1029.79)
(2844.24 1926.54 -2689.7)
(2550.99 1992.52 -5205.51)
(100.637 2150.44 -885.17)
(268.722 -22.7437 685.182)
(-70.8343 -461.097 3909.81)
(47.7104 -307.363 3319.64)
(-59.7604 808.566 505.379)
(45.2405 1679.04 3971.94)
(839.293 2900.36 10126.4)
(336.658 3684.64 11957.9)
(-713.591 3769.56 8909.16)
(457.678 3586.42 392.198)
(13.2331 3634.14 -5776.52)
(-663.753 850.084 -521.358)
(-343.848 -1085.33 3130.51)
(-1091.4 10.9448 1647.28)
(-134.396 1553.68 -118.779)
(1984.07 2359.89 7640.45)
(2323.53 2565.09 11921.9)
(-228.436 2429.77 8383.83)
(-2319.11 3242.75 7506.94)
(-2187.32 4051.05 6259.04)
(-378.335 4402.71 -1895.45)
(-2184.5 2584.65 -1526.06)
(-867.022 -1173.73 3567.53)
(-1557.01 958.038 617.835)
(1154.68 1914.37 2376.43)
(4010.38 989.938 11851.3)
(2439.92 -88.5451 7806.33)
(-238.361 -6.87868 3142.55)
(-1830.48 1581.4 3574.76)
(-2628.24 3303.71 5174.95)
(-1895.05 4370.23 3543)
(-2277.7 2607.67 -606.262)
(-1031.99 -756.203 3528.93)
(-1198.56 1823.65 -20.1037)
(2207.43 2060.81 2711.46)
(4012.76 -574.137 9435.22)
(2695.2 -2094.98 5692.42)
(777.05 -1378.79 2258.64)
(-279.001 208.223 1746.43)
(-1963.93 1968.94 2914.66)
(-2741.09 3451.6 4615.88)
(-3042.13 2179.35 2653.55)
(-762.045 -131.86 3556.03)
(46.4065 1947.8 349.328)
(2207.11 3323.94 -3460.95)
(3607.17 -32.1662 5473.32)
(3629.5 -2338.39 6263.36)
(2146.04 -2647.16 2641.7)
(1392.81 -1824.88 669.529)
(-981.437 -655.832 1486.14)
(-2953.4 1675.63 6694.28)
(-2929.69 891.088 6160.4)
(-361.235 349.001 2674.06)
(374.867 1039.34 699.472)
(2082.66 698.302 -4203.29)
(3520.97 1612.85 -1807.12)
(3909.13 -443.184 3355.38)
(3387.26 -2286.34 4057.82)
(2495.54 -2781.47 3254.27)
(-124.908 -1813.66 4703.87)
(-1602.16 -339.156 8470.24)
(-1575.63 541.04 10940.1)
(17.2172 521.606 1153.16)
(-70.5706 500.553 749.661)
(510.288 233.406 -803.747)
(2137.38 -861.288 -2772.2)
(3033.23 -650.323 -1764.88)
(2820.25 -1701.37 -237.866)
(1470.1 -3028.49 1768.02)
(17.7775 -2100.92 4988.94)
(-240.425 -730.971 10403.8)
(-500.663 288.951 12279.1)
(238.324 101.654 5046.77)
(466.677 89.484 4834.44)
(960.418 209.816 5259.25)
(1167.29 287.235 3893.93)
(1101.11 415.854 2885.5)
(424.941 550.839 1534.37)
(140.957 350.377 1182.47)
(-338.436 96.0831 1609.92)
(-948.972 -549.245 1797.61)
(-357.198 -838.161 1884.69)
(178.85 346.944 5631.47)
(339.452 318.342 3452.3)
(864.38 591.476 434.654)
(1896.49 229.209 -1387.26)
(2316.1 303.514 -1040.83)
(1831.86 548.62 140.278)
(923.423 1257.7 427.837)
(-350.594 858.348 2342.01)
(-1262.05 -1387.43 4556.88)
(-820.747 -1993.28 3274)
(117.808 777.485 6443.36)
(536.936 951.749 2397.81)
(430.203 674.077 -2495.52)
(996.655 397.532 -1880.79)
(714.497 1157.43 -2496.18)
(837.97 1759.52 -2292.76)
(123.464 2247.67 25.4037)
(-1026.03 1605.07 2267.68)
(-1118.36 -1358.64 5613.07)
(-319.397 -3711.71 3917.56)
(88.4213 934.168 6185.81)
(765.382 1033.5 2630.1)
(848.917 803.543 -386.549)
(1017.71 1169.56 2539.8)
(612.561 3495.76 5240.7)
(81.6073 4379.07 4467.97)
(387.206 4469.9 -606.552)
(-658.55 4070.57 -1220.82)
(-1893.06 -363.443 6939.89)
(765.059 -4001.91 5062.6)
(307.726 482.703 4824.6)
(251.464 604.162 2087.03)
(945.41 718.568 -239.287)
(2967.17 1302.18 3670.4)
(3421.5 4490.59 10967.6)
(1764.67 5345.18 9050.63)
(929.245 6032.12 4546.09)
(-488.823 5802.64 3616.24)
(-2165.5 491.6 11298.2)
(392.228 -2895.52 9300.38)
(367.962 -458.295 3077.16)
(-359.911 413.472 1576.24)
(1252.49 1173.75 -276.84)
(4126 1373.58 4778.96)
(4908.71 2698 8289.27)
(3306.81 4115.69 5727.46)
(1257.23 4823.46 6407.79)
(-1820.09 3055.23 15502.3)
(-1988.16 -689.771 16836.8)
(209.521 -2511.72 13049.2)
(98.1966 -961.781 2270.86)
(-93.6656 219.706 2272.22)
(1575.87 1279.11 149.102)
(4993.21 1094.57 4330.66)
(6061.48 1641.67 6187.94)
(4010.31 1878.61 6052.98)
(-1432.18 -1158.42 13810.5)
(-2886.56 -2722.25 21790)
(-1304.79 -2169.36 19938.7)
(1295.06 -1650.55 16215.4)
(-631.201 -1476.81 2628.31)
(-241.524 -138.206 3608.93)
(918.246 732.042 1448.78)
(4040.46 357.686 2078.23)
(5615.86 63.7478 5575.96)
(2784.85 -1875.94 12412.4)
(-3921.81 -3379.79 19679.1)
(-2136.47 -2736.2 19600.6)
(55.845 -413.653 19381.3)
(2497.26 510.334 17851)
(-1326.15 -1330.2 2811.32)
(-1837.14 -1068.85 5305.99)
(-1044.51 -215.072 5377.94)
(1308.6 -269.995 2288.09)
(2699.52 -1194.36 6414.94)
(233.269 -2161.61 14799.9)
(-2597.02 -1556.48 18967.3)
(-806.469 -71.6898 18574.7)
(1680.07 1898.93 16885.2)
(3724.02 2668.4 14374.1)
(-1461.73 -498.012 2967.77)
(-2544.37 -627.394 4350.13)
(-3436.31 137.092 4642.68)
(-3061.04 329.605 7394.23)
(-2162.08 -307.949 10350.6)
(-2281.52 -282.07 12738.1)
(-2061.2 983.973 15723.6)
(51.4465 2455.62 18144.5)
(2468.99 3771.34 15780.3)
(4328.01 4263.03 12448.9)
(445.603 811.787 2900.66)
(432.207 864.164 2531.49)
(872.677 369.805 3408.46)
(2017.31 47.834 4323.1)
(2773.16 397.247 1560.87)
(2893.13 974.322 -836.955)
(1962.99 898.364 -1007.11)
(476.503 -129.357 1020.02)
(-811.413 -467.194 1484.8)
(-1398.21 -377.075 -33.2737)
(557.954 1107.86 2528.9)
(229.564 617.711 1998.31)
(713.815 -108.429 6091.21)
(729.635 344.848 5650.28)
(-104.133 1534.71 -217.388)
(-1104.41 897.555 -305.545)
(-1430.29 -23.0357 1505.44)
(-950.274 36.2704 694.648)
(-1964.8 -1562.71 67.7474)
(-1371.59 -950.964 2738.59)
(47.2359 1606.84 3883.43)
(-270.543 857.54 3914.74)
(1099.4 536.429 4623.92)
(-1158.97 553.087 5869.15)
(-1548.48 548.749 3141.18)
(-3097.77 435.521 6425.42)
(-3499.21 639.215 6996.85)
(-2382.17 74.9246 7036.94)
(-2252.7 -3173.95 3640.66)
(-522.638 -1013.47 4294.49)
(-401.023 2487.15 5902.39)
(-26.3176 1454.19 4167.78)
(1126.16 -462.094 438.153)
(193.651 -546.687 833.501)
(-778.205 758.227 4212.57)
(-139.621 2827.62 3042.61)
(-188.617 4261.98 3901.63)
(-2697.08 366.828 17652.7)
(-542.569 -4656.62 7862.84)
(-8.94355 -1785.85 2776.7)
(-94.7061 3115.8 5504.01)
(1282.24 589.03 1252.67)
(697.108 -846.048 2430.32)
(1544.13 -465.561 4092.23)
(2814.05 2917.71 2728.56)
(3008.83 5573.63 2367.45)
(1119.91 5168.66 16112.6)
(-1679.45 -3619.26 27354.2)
(1304.84 -3868.41 5127.86)
(662.795 -3336.46 1216.8)
(261.41 3116.62 3719.63)
(536.513 -768.437 385.309)
(-2.50198 -2107.22 4456.38)
(3627.29 236.026 4485.78)
(5269.04 3562.18 2325.76)
(2631.01 3499.97 14744.8)
(-3385.23 -3478.83 34693.5)
(1279.14 -5017.12 15755.1)
(2268.43 -2732.25 1669.88)
(1868.13 -3096.76 452.702)
(301.445 2185.83 2609.55)
(-731.769 -1524.3 1517.65)
(-334.324 -2068.64 4270.63)
(4106.51 121.489 6295.37)
(4544.12 1387.82 14156.3)
(-3715.77 -3837.45 32349)
(-3068.46 -3744.77 18008.2)
(3349.45 -701.511 3165.68)
(2777.19 -1530.13 1981.8)
(2160.57 -1836 771.556)
(-40.9417 1016.63 2479.05)
(-972.298 -1467.27 1178.62)
(-731.615 -1275.47 3999.31)
(506.06 -1000.06 10213.4)
(-1321.06 -1479.9 23265.9)
(-5556.99 -886.18 20450.5)
(-308.015 2099.68 3444.53)
(2093.54 1181.34 3863.45)
(2537.29 223.687 3577.94)
(2382.5 -23.118 3047.48)