/*--------------------------------*- C++ -*----------------------------------*\
| =========                 |                                                 |
| \\      /  F ield         | OpenFOAM: The Open Source CFD Toolbox           |
|  \\    /   O peration     | Version:  2406                                  |
|   \\  /    A nd           | Website:  www.openfoam.com                      |
|    \\/     M anipulation  |                                                 |
\*---------------------------------------------------------------------------*/
FoamFile
{
    version     2.0;
    format      ascii;
    arch        "LSB;label=32;scalar=64";
    class       volScalarField;
    location    "0.1";
    object      nu;
}
// * * * * * * * * * * * * * * * * * * * * * * * * * * * * * * * * * * * * * //

dimensions      [0 2 -1 0 0 0 0];

internalField   nonuniform List<scalar> 
25000
(
0.00429415
0.00427886
0.00452565
0.00477892
0.00499315
0.00481044
0.00443032
0.00421432
0.00422517
0.00424681
0.00429579
0.00436077
0.00453013
0.0047314
0.00481268
0.0047384
0.00443847
0.0041971
0.00420991
0.00427595
0.00461789
0.00460845
0.00468345
0.00479156
0.00474302
0.00473525
0.00457978
0.0043363
0.00426018
0.00431023
0.00478755
0.0048099
0.00483881
0.00481921
0.00472859
0.00474835
0.00473488
0.00461682
0.00448094
0.00448123
0.00494083
0.00491466
0.00484393
0.0047921
0.00466406
0.00463729
0.00466028
0.00466184
0.00465134
0.00467811
0.00468681
0.00471596
0.00476408
0.00479377
0.00467104
0.00461734
0.00466233
0.00467844
0.0046876
0.00475612
0.00431833
0.00432971
0.00449981
0.00468358
0.0046768
0.00466358
0.00472749
0.00464366
0.00457069
0.0046333
0.00414204
0.00410861
0.0042271
0.00449219
0.00464874
0.00468175
0.00465962
0.00448037
0.0043799
0.00440007
0.0041607
0.0041506
0.00416509
0.00436631
0.0045828
0.00468145
0.00461524
0.00439889
0.00431733
0.00432704
0.0041796
0.00420617
0.00422025
0.00438493
0.0046199
0.00473652
0.00468775
0.00444729
0.00433213
0.0044023
0.00400782
0.00408618
0.00389188
0.00403235
0.00429946
0.00414762
0.00407674
0.00419551
0.0042846
0.00410346
0.00404815
0.00402271
0.00390778
0.00415507
0.00456078
0.00438622
0.00419961
0.0043626
0.00462799
0.00413603
0.00394676
0.00390672
0.00407104
0.00450451
0.00461458
0.00465457
0.00430469
0.00430761
0.00448205
0.00420051
0.00419833
0.00423803
0.00442264
0.00462246
0.00460918
0.00477898
0.00475217
0.00451509
0.00467877
0.00430911
0.00432574
0.00453529
0.00456678
0.00453934
0.00468208
0.00477514
0.00484708
0.00479678
0.00473486
0.00434845
0.00404854
0.00414581
0.00437902
0.00466081
0.00474248
0.00475385
0.00448875
0.00441087
0.00439691
0.0042376
0.00399509
0.00401766
0.00407881
0.00442024
0.0049075
0.00460832
0.00427714
0.00403102
0.00399949
0.0039807
0.00407658
0.00423886
0.00409277
0.00425589
0.00464621
0.00454058
0.00408324
0.00392744
0.00401749
0.00390556
0.00412059
0.00445161
0.00428458
0.00435228
0.00461137
0.00458358
0.00411059
0.00403253
0.00410295
0.00393883
0.00409692
0.00411606
0.00408397
0.00419318
0.00426794
0.00429662
0.00412996
0.0039693
0.00391919
0.00404495
0.00382929
0.00404938
0.00387072
0.00377572
0.0038638
0.00393877
0.00406595
0.00426408
0.0050616
0.0044193
0.00383892
0.0044465
0.00401874
0.00390352
0.00424661
0.00490126
0.00446529
0.00428097
0.00437809
0.00414585
0.00371689
0.00392862
0.00390489
0.00402349
0.00434414
0.00448327
0.00454556
0.00435336
0.00413201
0.00394888
0.00379654
0.00407858
0.00410977
0.00442656
0.00456624
0.00442669
0.00472784
0.0053112
0.00441752
0.00404153
0.00384556
0.00460517
0.00455692
0.00460094
0.00453864
0.0044618
0.00425154
0.00411173
0.00395579
0.0038022
0.00386745
0.00456354
0.00454778
0.00474323
0.00465131
0.00428402
0.00395181
0.00378128
0.00367988
0.00354586
0.00383157
0.00417741
0.00410941
0.00444246
0.00466539
0.00401304
0.00376042
0.00374771
0.00373597
0.00347638
0.0040342
0.00436821
0.00410666
0.00421754
0.00464757
0.00390241
0.00375184
0.00397186
0.00402324
0.00360367
0.0043306
0.00485146
0.00408457
0.00401474
0.0042136
0.003835
0.00367098
0.0037624
0.00390798
0.00378704
0.00436183
0.00422689
0.00381399
0.0038249
0.00386334
0.00370992
0.00353925
0.00350668
0.0036781
0.0039042
0.0036256
0.00384948
0.00412912
0.0037635
0.00367495
0.00379433
0.0040315
0.00415403
0.00417156
0.00422611
0.00391096
0.00467483
0.00426633
0.00381075
0.00384154
0.00423716
0.00468949
0.00426631
0.00438819
0.00456295
0.00375191
0.00397397
0.00382079
0.00372366
0.0038524
0.00424009
0.00449077
0.00412231
0.00470827
0.004328
0.00365172
0.00378731
0.00376711
0.00385327
0.00410201
0.00446026
0.00442399
0.00422615
0.00482855
0.00438334
0.00376798
0.00411593
0.00411959
0.00427454
0.00463506
0.00439447
0.00389604
0.00382589
0.00399426
0.00411262
0.00380494
0.00486123
0.00470744
0.0044765
0.00432268
0.00383916
0.00359612
0.0036031
0.00366737
0.00364891
0.00381754
0.0042325
0.0040185
0.00389494
0.00389991
0.0036402
0.00358484
0.00384683
0.00387461
0.00361235
0.00384682
0.00396055
0.00397655
0.00400202
0.00394724
0.00373592
0.0039036
0.00459663
0.0042138
0.00375301
0.00388268
0.00407729
0.00435813
0.00445242
0.00433757
0.0039774
0.00398382
0.00409629
0.00395842
0.00364282
0.00375104
0.00419654
0.00412941
0.0040607
0.00399408
0.00377581
0.00367241
0.00366769
0.00359773
0.00344063
0.00358092
0.00360481
0.00384021
0.00387007
0.00372923
0.003882
0.00417365
0.00379115
0.00385967
0.00406335
0.00362917
0.00393747
0.00416474
0.0039518
0.00369909
0.00375885
0.00421901
0.00394694
0.00367722
0.00408834
0.00377438
0.00449779
0.00411612
0.00378279
0.00361856
0.00377647
0.00471551
0.00405177
0.00384146
0.00410524
0.00381424
0.00385097
0.00366812
0.00357203
0.0036276
0.00407044
0.0042589
0.00393742
0.00410868
0.00425286
0.00380186
0.00361783
0.00356583
0.00365916
0.00406149
0.00414787
0.00365304
0.00367487
0.00390105
0.00448796
0.00396777
0.00376708
0.00395971
0.00460162
0.00407823
0.00355619
0.00347826
0.00365007
0.00373826
0.00386265
0.0041839
0.00407136
0.0041778
0.00390503
0.00366173
0.0035042
0.0037397
0.00408868
0.00404876
0.00394389
0.00416841
0.00381978
0.00380371
0.00385553
0.00376719
0.00380956
0.0042749
0.00453962
0.00424178
0.00386899
0.00420097
0.00402043
0.00401428
0.0041965
0.0041931
0.00409199
0.00425776
0.0042652
0.0038098
0.00351887
0.00362232
0.00404169
0.00462651
0.0046638
0.00464947
0.00426386
0.00407627
0.00378338
0.00348678
0.00340648
0.00370856
0.00358967
0.00360215
0.00373512
0.00401655
0.0039404
0.00359797
0.00380444
0.0038164
0.00333493
0.00369741
0.00382634
0.00375761
0.00403146
0.00390707
0.00357814
0.00358758
0.00335505
0.00364204
0.00380144
0.00366854
0.00432975
0.00388018
0.00393001
0.00360616
0.00361429
0.00446337
0.00352138
0.0034783
0.0042269
0.00360027
0.00405859
0.003727
0.00357418
0.00350222
0.00394699
0.00396502
0.0037261
0.00361153
0.0040425
0.00370872
0.00365533
0.00344859
0.00348676
0.00391648
0.00373762
0.00356396
0.0037413
0.00403709
0.00408359
0.00409061
0.00361788
0.00361574
0.00419742
0.00368306
0.00347873
0.00368469
0.00388123
0.00399836
0.00470621
0.00440092
0.00379005
0.00389529
0.00373079
0.00357796
0.00373537
0.00413369
0.00409422
0.0039948
0.00404727
0.00418253
0.00389157
0.00370649
0.00377726
0.0038443
0.00405627
0.00400952
0.00405618
0.00390752
0.00365746
0.00362369
0.00408545
0.0040213
0.00413945
0.00435861
0.00415064
0.00389172
0.00410797
0.0037039
0.00338617
0.00335278
0.00368163
0.00418894
0.00443206
0.00441914
0.00405845
0.00380546
0.00361743
0.00335943
0.00327802
0.0035364
0.00363431
0.00373506
0.00379435
0.00400624
0.00363102
0.00371299
0.00405119
0.00353919
0.00336495
0.00366791
0.00379599
0.00376883
0.00419974
0.00362719
0.00344272
0.00322607
0.0033515
0.00414353
0.00371633
0.00376617
0.00400794
0.00364815
0.00360826
0.00349289
0.00364068
0.00355583
0.00322547
0.00346387
0.00410929
0.00382149
0.00378176
0.00342319
0.00342977
0.00346325
0.0037586
0.00379304
0.00356442
0.00344196
0.00397616
0.00390313
0.00347942
0.00332633
0.00343619
0.00359482
0.00365672
0.00371782
0.00377608
0.00373875
0.00390498
0.0041322
0.00347364
0.00353615
0.00373545
0.00366139
0.00379588
0.00394176
0.00383988
0.00410889
0.00398025
0.00407815
0.00352554
0.00366123
0.00369907
0.00374894
0.00397141
0.00373628
0.00368429
0.00385527
0.00398476
0.00379535
0.00358887
0.00347829
0.00375079
0.00379045
0.00380067
0.00364755
0.00364853
0.00373413
0.00370325
0.00360408
0.00405643
0.00361607
0.00371436
0.00386464
0.00383506
0.00369663
0.00396738
0.00405427
0.00348909
0.00353728
0.00387828
0.00407579
0.00382544
0.00380557
0.00397071
0.00380475
0.00361024
0.00361031
0.00357566
0.00329956
0.00347885
0.00361325
0.00386911
0.00409863
0.00418306
0.00400086
0.00398832
0.00377156
0.00353214
0.00354841
0.0041373
0.00400037
0.00389261
0.00364485
0.003465
0.00349977
0.00390308
0.00414549
0.00371412
0.00370704
0.00451578
0.00381183
0.00346807
0.00329731
0.00326042
0.00316386
0.0032642
0.00375968
0.00372524
0.00379648
0.00422765
0.00361391
0.00325957
0.00328996
0.00355858
0.0035509
0.00318087
0.00340444
0.00365793
0.00390789
0.00396082
0.00328866
0.00323024
0.00347062
0.00343642
0.00351007
0.00359695
0.003373
0.00365183
0.00411958
0.00356799
0.00326461
0.00349097
0.00343547
0.00353153
0.0035048
0.00362643
0.00363359
0.00371056
0.00403998
0.00342947
0.0032971
0.00382991
0.00353802
0.00378297
0.00356016
0.00346046
0.00403368
0.00380546
0.00389672
0.00361554
0.00320218
0.00342741
0.00375271
0.00358074
0.00359729
0.00347995
0.00373813
0.00387625
0.00382573
0.00396634
0.00350881
0.0033493
0.0035463
0.00391189
0.00376943
0.0037174
0.00367075
0.00374303
0.00361892
0.00377368
0.00377212
0.00367828
0.00369691
0.00388444
0.00408491
0.004049
0.00368433
0.00352726
0.00318268
0.00355077
0.00367174
0.00378665
0.00380177
0.00399848
0.0042047
0.00412255
0.00373434
0.00333335
0.00357591
0.00398198
0.00395115
0.00390609
0.00376525
0.00379942
0.00398099
0.0038812
0.00373572
0.00355244
0.00373458
0.00377781
0.00395784
0.00383211
0.00360212
0.0035298
0.00354842
0.00360854
0.0040118
0.00389229
0.00382957
0.00381334
0.00387911
0.00351166
0.00326549
0.00327705
0.0032616
0.0033089
0.00354883
0.00397486
0.00391669
0.00395836
0.00372072
0.00328018
0.00324862
0.00346114
0.00365014
0.00332462
0.00337323
0.00366634
0.00402717
0.00387636
0.00345974
0.00325783
0.00347704
0.00357761
0.00342899
0.00370906
0.00350319
0.00362762
0.00415202
0.00379074
0.00337469
0.00338994
0.0037015
0.0034919
0.00372578
0.00340599
0.00399732
0.00372557
0.00413199
0.00402555
0.00341118
0.00322605
0.00368494
0.00344264
0.00347657
0.00349135
0.00355578
0.00378114
0.00386743
0.00388739
0.00365622
0.00333719
0.00335595
0.00373207
0.00370359
0.00354783
0.00371562
0.00382327
0.00346785
0.00371746
0.004018
0.00372429
0.00355479
0.00371718
0.00403748
0.00372461
0.00375805
0.00368895
0.00313802
0.00352521
0.00369024
0.00384421
0.00402036
0.00382093
0.00367938
0.00371106
0.00404775
0.00337184
0.00354314
0.00369239
0.00347758
0.00352752
0.00353031
0.00349922
0.00339403
0.00326741
0.00326156
0.00382443
0.00371782
0.00350818
0.00356622
0.00364556
0.00350978
0.00355527
0.00363727
0.00344927
0.00313902
0.0033016
0.00385237
0.00344863
0.00356648
0.00381536
0.00362794
0.0036292
0.00354316
0.00353701
0.0033783
0.00319464
0.00402923
0.00343282
0.0036517
0.00360566
0.00333384
0.00333805
0.00338418
0.00380883
0.00352791
0.00337255
0.00383009
0.00341531
0.00361609
0.00346869
0.00333729
0.00341991
0.00344812
0.00342752
0.00327398
0.00344418
0.00367861
0.00336373
0.00353558
0.00353191
0.00347841
0.0034821
0.00337847
0.0031357
0.00317553
0.00340903
0.00367036
0.00325073
0.00346392
0.00364091
0.00382435
0.0033494
0.00315259
0.00316281
0.00326856
0.00341704
0.00394674
0.00320226
0.00319575
0.00355271
0.00374468
0.00330448
0.00317571
0.0032939
0.00342846
0.00353988
0.00350967
0.00354144
0.00317714
0.00324704
0.00351847
0.00342926
0.00337039
0.00341726
0.00351993
0.00368674
0.00318539
0.0036041
0.00386774
0.00366122
0.00344839
0.00334472
0.00334766
0.00351467
0.00388057
0.00344619
0.00367724
0.00355048
0.00327494
0.00329355
0.00325733
0.00331757
0.00324643
0.00315374
0.0034388
0.00384694
0.00403996
0.00330007
0.0033291
0.00358238
0.00334165
0.00356051
0.00383495
0.00319904
0.00323518
0.00378618
0.00389622
0.0032131
0.00341215
0.00392272
0.0035726
0.00332941
0.00383179
0.00323097
0.00321156
0.00366376
0.00363306
0.00314514
0.00350761
0.00340741
0.00325523
0.00328653
0.0033419
0.00302942
0.00330887
0.00372944
0.00341327
0.00315981
0.00363171
0.00330338
0.00329123
0.00336629
0.00295644
0.00307335
0.00356326
0.00372348
0.00340368
0.00314903
0.00353586
0.00379634
0.00342357
0.002974
0.00301309
0.0034461
0.0036867
0.00361586
0.00364831
0.00309998
0.00314755
0.00336654
0.00308172
0.00301326
0.0033453
0.00375266
0.00377495
0.00363499
0.00410456
0.0033407
0.00309881
0.00310407
0.00314613
0.00330006
0.00355506
0.00374292
0.00410026
0.00357752
0.00343685
0.00414438
0.00360064
0.00336332
0.00346971
0.00372247
0.00361846
0.00359424
0.00354018
0.00326651
0.00321875
0.00347575
0.00374621
0.00390604
0.00359364
0.00338035
0.00333507
0.00345523
0.00355168
0.00357466
0.00359246
0.00435913
0.00360404
0.00336102
0.0031179
0.00315598
0.00316504
0.00325248
0.00339498
0.00348937
0.0039927
0.00353954
0.00319543
0.00324811
0.00315735
0.00345682
0.00365232
0.00324968
0.00333922
0.00351874
0.00422069
0.00319194
0.00310589
0.00342183
0.0035559
0.003329
0.00346282
0.00312138
0.00351126
0.00384232
0.00397341
0.00305079
0.00328192
0.00327223
0.00324755
0.00355414
0.00301497
0.00330129
0.00384934
0.00416266
0.00362614
0.00303705
0.00333612
0.00338138
0.00343992
0.00300342
0.00315458
0.00401246
0.00379277
0.00367826
0.00356367
0.00308604
0.00324079
0.00351356
0.00300741
0.00309569
0.00418571
0.00369679
0.00348108
0.00339595
0.00368474
0.00326272
0.00317997
0.00315222
0.00316587
0.00391724
0.003816
0.00346799
0.00352945
0.00342372
0.00371807
0.00343159
0.00329724
0.00334639
0.00380185
0.00396145
0.00356718
0.00355166
0.00419564
0.00346573
0.00343911
0.00369828
0.00358973
0.00379714
0.00477022
0.00384165
0.0035166
0.00352626
0.00348772
0.00328713
0.00330461
0.00335193
0.00334625
0.00338699
0.00344253
0.00360646
0.00329525
0.00323564
0.00330595
0.0037993
0.00353857
0.00386224
0.00363456
0.00369394
0.00352959
0.0030816
0.00307206
0.0032585
0.00312819
0.00319859
0.00347434
0.00381165
0.00411622
0.00334385
0.00304322
0.00309695
0.00354418
0.00343783
0.00330495
0.00318184
0.00345863
0.00390625
0.00319072
0.00304305
0.00320639
0.00336578
0.00335787
0.00320915
0.00336069
0.00332424
0.00351367
0.00333361
0.00291318
0.00311746
0.0033086
0.00340135
0.00303509
0.00347986
0.00354915
0.00370026
0.00378811
0.00301597
0.00304956
0.00353788
0.00328876
0.0030164
0.00343708
0.00380415
0.00363583
0.00368115
0.00359548
0.00304843
0.00319806
0.00324613
0.0030172
0.00343439
0.0038263
0.00352303
0.00347104
0.00345341
0.0035464
0.0031652
0.00327212
0.0031753
0.00356346
0.00391854
0.00351227
0.00342016
0.0035008
0.00339629
0.00387055
0.00315249
0.00317655
0.00336579
0.00362985
0.00357178
0.00347352
0.00352828
0.00405769
0.00345019
0.0035074
0.0035699
0.00336512
0.00350491
0.00381156
0.00376264
0.00351179
0.00347634
0.00354171
0.00355399
0.0034706
0.0034023
0.00340538
0.00356589
0.00349506
0.00339753
0.00328899
0.00330545
0.00327502
0.00391913
0.00359371
0.00368495
0.00366572
0.00360593
0.00372807
0.00311982
0.00307504
0.00316011
0.00304841
0.00333058
0.00344198
0.00362332
0.00359498
0.00368969
0.00318878
0.00305161
0.00335536
0.00330107
0.00305829
0.00323184
0.00353978
0.00366573
0.00371861
0.00320069
0.00307834
0.00328485
0.00356743
0.003228
0.00317069
0.00317574
0.00360991
0.00367126
0.00304494
0.00299592
0.0032289
0.00349132
0.00303881
0.00337173
0.00354698
0.00328444
0.00359294
0.00305893
0.00297508
0.00341423
0.00334755
0.00300164
0.00340302
0.00352044
0.00342377
0.00353515
0.00351774
0.0030369
0.00313775
0.00343028
0.003107
0.00345905
0.00371309
0.00346588
0.00335143
0.00372994
0.00355237
0.00311913
0.00301622
0.00309765
0.00328195
0.00356223
0.00352924
0.00338309
0.00335795
0.00361571
0.00389243
0.00327367
0.00315015
0.0031333
0.00328645
0.00349072
0.00349922
0.0034534
0.00372252
0.00351595
0.00357846
0.0041559
0.00371343
0.00354977
0.00350329
0.00370995
0.00378927
0.00361583
0.00363029
0.00364568
0.00345303
0.00362841
0.00354388
0.00352413
0.0035558
0.003672
0.00376779
0.00368341
0.00351659
0.00330983
0.0036756
0.00360478
0.00384258
0.00370185
0.00333526
0.0031057
0.00314
0.00341365
0.0037112
0.00346784
0.00352186
0.00350896
0.00340965
0.00356907
0.00326503
0.00301532
0.00286464
0.00292423
0.00338952
0.00341639
0.00349174
0.00375006
0.00356705
0.00331528
0.0030749
0.003166
0.00314967
0.00288523
0.00297824
0.00345917
0.00349505
0.00345415
0.00316663
0.00300689
0.00309883
0.0037723
0.00324529
0.00325012
0.00301861
0.00329045
0.0036562
0.00314761
0.00292866
0.0031587
0.00402962
0.00305797
0.0030457
0.00325936
0.00349786
0.00325812
0.00382276
0.00341385
0.00287064
0.00292195
0.0032314
0.00312237
0.00381405
0.00337792
0.00336714
0.00334574
0.00372657
0.00386233
0.00331012
0.00292101
0.00305828
0.003427
0.00340796
0.0035432
0.00323132
0.00354995
0.00363993
0.00360407
0.00344263
0.00340688
0.00320748
0.00329213
0.00349913
0.00350141
0.00336772
0.00391097
0.00339667
0.00347293
0.00353526
0.00358962
0.00363493
0.00383304
0.00405062
0.00395623
0.0039331
0.00376025
0.00324651
0.00352552
0.0034905
0.00337202
0.00332051
0.00337897
0.00351456
0.00365468
0.00358983
0.00325203
0.00341098
0.00358797
0.00351988
0.00360484
0.00370347
0.00403672
0.00387416
0.00391722
0.00383873
0.00351665
0.00348588
0.00341019
0.00339788
0.00345775
0.00311416
0.0029768
0.00310352
0.00332982
0.00385413
0.0037733
0.00341259
0.00372592
0.00334476
0.00321162
0.00309035
0.00290532
0.00280255
0.00286265
0.00314763
0.0037328
0.00339876
0.00405465
0.00318817
0.00304115
0.00303752
0.00321275
0.00332686
0.00301345
0.00290947
0.00330585
0.00337444
0.00395283
0.00303881
0.00287645
0.00322306
0.00365525
0.00311192
0.00315809
0.00317555
0.00315789
0.00348138
0.00384675
0.00328495
0.00281218
0.00307655
0.00316909
0.00308026
0.00313102
0.00348009
0.00309716
0.00367514
0.00369126
0.00369111
0.00310435
0.00289138
0.00321044
0.00314768
0.00373897
0.00320698
0.00318977
0.00365059
0.00368463
0.00360713
0.00359237
0.00320472
0.00311076
0.00327335
0.0035691
0.00317128
0.00343267
0.00328086
0.00355424
0.00369671
0.00367636
0.00434769
0.00361249
0.0035246
0.00411137
0.00342739
0.00387316
0.00308956
0.00328605
0.0034687
0.00340873
0.00345909
0.00326753
0.00326182
0.0034053
0.00345495
0.00320813
0.00323584
0.00360026
0.00339925
0.00377753
0.00356049
0.00339213
0.00338178
0.00344828
0.00363574
0.0034005
0.00340384
0.00332277
0.00331984
0.00328957
0.00319244
0.00324746
0.00331302
0.00338263
0.0033235
0.0036736
0.00343582
0.00371359
0.00318271
0.00318355
0.00302337
0.00287274
0.00285334
0.00290078
0.00303404
0.00319322
0.00355657
0.0036569
0.00326258
0.00301648
0.0030065
0.00303352
0.00301096
0.00290909
0.00288866
0.00295259
0.00331219
0.00343957
0.00329465
0.00287226
0.00301915
0.00393532
0.00319712
0.00317399
0.00310935
0.00296679
0.0032695
0.00340471
0.00350809
0.00289969
0.00291838
0.00322263
0.00293965
0.0031608
0.00385429
0.00301369
0.00341931
0.00344552
0.00346253
0.00305649
0.0029106
0.00313849
0.00318536
0.00342035
0.00317723
0.00295989
0.00351159
0.00360488
0.00334865
0.0031988
0.00308636
0.0031835
0.00335528
0.00332125
0.00295416
0.00299009
0.00326235
0.00348499
0.00366598
0.00324523
0.00309652
0.00320867
0.00327182
0.00324414
0.00307546
0.0035545
0.00321913
0.00310539
0.00325846
0.00322893
0.00334232
0.00338541
0.00334863
0.00332179
0.00330255
0.00328658
0.00310689
0.00369002
0.00321808
0.00336507
0.00338019
0.00328794
0.00326078
0.00329115
0.00346067
0.0034114
0.00318013
0.00320766
0.00338785
0.003147
0.00312418
0.00315503
0.00308615
0.00304427
0.00323608
0.00359591
0.00327089
0.00330411
0.00311615
0.00314404
0.00300611
0.00290986
0.00286806
0.00282221
0.00286625
0.00334548
0.00341778
0.00342592
0.00314413
0.00301836
0.0030886
0.00309683
0.0031618
0.00295546
0.00274742
0.00293734
0.00344309
0.00330057
0.00318552
0.00292726
0.00308338
0.00379068
0.0031869
0.00310521
0.00282086
0.00284509
0.00336383
0.00325718
0.00311065
0.0029197
0.00311916
0.00314968
0.00295047
0.00286635
0.00279828
0.00295823
0.00334557
0.00328238
0.00305344
0.00291195
0.00297793
0.00297625
0.00284376
0.0028331
0.00287392
0.00326767
0.00335683
0.00346166
0.0032269
0.00294533
0.00285455
0.00285092
0.00285069
0.00301653
0.00321114
0.00363289
0.00333408
0.00346298
0.00363817
0.00338197
0.00304484
0.00301186
0.00316994
0.00351794
0.00361201
0.00322025
0.00347319
0.00325341
0.00340365
0.003404
0.00311295
0.00316445
0.00341856
0.00336233
0.00345622
0.00333431
0.00330546
0.00350904
0.00336304
0.0032098
0.00335319
0.0033115
0.00325051
0.00334562
0.00354003
0.00376664
0.00345413
0.00344428
0.00403834
0.00328808
0.00295673
0.00294082
0.00303934
0.00316114
0.00332586
0.00372366
0.00343133
0.00320305
0.00326734
0.0032524
0.00304557
0.00287306
0.0027537
0.00280011
0.00320968
0.00347059
0.0032009
0.00336914
0.00297342
0.00305174
0.00321254
0.00331121
0.00302435
0.00267686
0.00286791
0.00349823
0.00337485
0.00329702
0.00296864
0.00288977
0.0032952
0.00334923
0.00290185
0.00267995
0.00282639
0.00365434
0.00338798
0.00326843
0.003034
0.00279553
0.00300248
0.00286516
0.0026678
0.00267958
0.00314815
0.00370953
0.00337775
0.00335875
0.00312074
0.00283854
0.0027226
0.00268396
0.00272587
0.00312173
0.00382247
0.00362269
0.00346875
0.0035715
0.00332935
0.00323095
0.0029596
0.00295227
0.00340848
0.00397354
0.00411745
0.00358793
0.00344151
0.00382239
0.00384647
0.00354812
0.0035437
0.00363669
0.00376028
0.00367186
0.00357543
0.00325031
0.00322302
0.00318541
0.00337293
0.00309717
0.00304736
0.00329977
0.00379167
0.00303276
0.00301495
0.00331629
0.00322577
0.00336008
0.00307704
0.00286705
0.00302658
0.00353155
0.00321429
0.00338637
0.0031419
0.00321285
0.00336771
0.00309832
0.00284784
0.00283811
0.00305443
0.00295544
0.00311605
0.00315767
0.00339385
0.00329341
0.0031574
0.00292867
0.00285516
0.00299287
0.00311268
0.0029546
0.00275208
0.00302336
0.00328743
0.00328602
0.00305317
0.0030315
0.0030563
0.00311615
0.00318376
0.00354615
0.00288258
0.00278299
0.00299676
0.0032895
0.00320165
0.00352269
0.00298433
0.00296039
0.00344788
0.00299641
0.00269018
0.00271477
0.00307103
0.00345947
0.00317913
0.00329134
0.00315753
0.00279465
0.00286153
0.00267576
0.00263429
0.00299379
0.00366152
0.00376688
0.00297122
0.00346847
0.00312035
0.00308509
0.00284012
0.00278455
0.00310991
0.003835
0.00374244
0.00388996
0.002981
0.00315526
0.00348318
0.00332195
0.00311135
0.00322853
0.00350052
0.00361279
0.00398791
0.00365447
0.00317206
0.00309747
0.00323135
0.00325957
0.00325326
0.00333032
0.00352806
0.0037453
0.00357064
0.00325936
0.00322321
0.00351807
0.00370703
0.00358617
0.00305189
0.00281806
0.00288844
0.0028207
0.00275476
0.0028134
0.0035032
0.00385332
0.00382626
0.00326942
0.00273505
0.00279953
0.00331703
0.00363495
0.0030478
0.00286503
0.00368778
0.00376525
0.00377283
0.00278877
0.00262706
0.00293713
0.00315094
0.00303894
0.00330266
0.00296969
0.00364093
0.00341152
0.00282837
0.00257387
0.00274976
0.0030709
0.00280087
0.00306569
0.00323648
0.0029856
0.00335793
0.00280257
0.00262659
0.00273989
0.00304917
0.00341519
0.0027874
0.0028512
0.00302225
0.00306021
0.00293914
0.00275032
0.00288061
0.00304738
0.00335264
0.00283607
0.00261621
0.00282508
0.00307021
0.00330797
0.00286241
0.00306473
0.00319021
0.0028412
0.00278928
0.00262404
0.0027075
0.00326086
0.00341064
0.00372371
0.00283397
0.00338153
0.00308744
0.00309088
0.00292807
0.00293318
0.00336314
0.00362811
0.00368515
0.00386453
0.00278609
0.00303436
0.0034628
0.00334041
0.00313075
0.00308986
0.0032233
0.00348558
0.00398303
0.00366858
0.0027984
0.00283984
0.00299162
0.00295285
0.00294785
0.00311904
0.00347267
0.00372886
0.00355012
0.00328638
0.00329966
0.00357947
0.00365609
0.00358298
0.00342903
0.00302303
0.00278652
0.00281884
0.00270015
0.00266818
0.00349997
0.00409951
0.00377899
0.00421051
0.00303656
0.00265128
0.00286515
0.00337662
0.0029809
0.00270645
0.00359637
0.00370572
0.00411597
0.00347865
0.00261529
0.00267476
0.00325906
0.0030775
0.00317148
0.00281805
0.003497
0.00394107
0.00367479
0.00265936
0.00253166
0.00299658
0.00285459
0.00297178
0.0030991
0.00285241
0.00344229
0.00324219
0.00266498
0.00252603
0.00283161
0.00330227
0.00274137
0.00285878
0.0029423
0.00298966
0.00335313
0.00272615
0.00264188
0.00293723
0.0033036
0.00276811
0.00260804
0.00286801
0.00303468
0.0032957
0.00293049
0.00279473
0.00316146
0.00288573
0.00276182
0.00262915
0.00275718
0.00330379
0.00341303
0.00373815
0.00280609
0.0030337
0.00317682
0.00302002
0.00294808
0.00296747
0.00328964
0.00352555
0.00369647
0.00389374
0.00269143
0.00281948
0.0032337
0.00323323
0.00297949
0.00298419
0.00313898
0.00343258
0.00392821
0.00371492
0.00279357
0.00265504
0.00279968
0.00277727
0.00287883
0.0031385
0.00363265
0.00381738
0.00359466
0.00335042
0.00326729
0.00355989
0.00367745
0.00351555
0.003426
0.00323198
0.00281785
0.00271767
0.00256766
0.0028569
0.00343677
0.00411217
0.0038068
0.00374638
0.00324258
0.00272386
0.00272124
0.00307591
0.00270606
0.00262055
0.0036292
0.00372341
0.00374807
0.00380763
0.0027308
0.00256271
0.00307443
0.00324697
0.00296049
0.0027131
0.0034904
0.00359972
0.00365791
0.00282284
0.00248132
0.00279901
0.0029494
0.0029284
0.00296215
0.00281435
0.00336969
0.00328787
0.00277658
0.00248882
0.00266044
0.00333547
0.00273446
0.00284261
0.00288813
0.00298462
0.00327351
0.00278722
0.00257382
0.00277206
0.00338126
0.0027508
0.00262065
0.00286326
0.00299223
0.003281
0.00288039
0.00273613
0.00301418
0.00298295
0.00276449
0.00264664
0.00276465
0.00321121
0.00337581
0.00377726
0.00269467
0.00285985
0.0033695
0.00298644
0.00290605
0.00292838
0.00315966
0.00345369
0.00367834
0.00393702
0.00265182
0.00265123
0.00281926
0.00287449
0.00285033
0.00292165
0.00309681
0.00338876
0.0037657
0.00379437
0.00296972
0.00266396
0.0027036
0.00279383
0.00294659
0.00319109
0.00375355
0.00397702
0.00373915
0.00347809
0.00329117
0.00360823
0.0037832
0.00351692
0.00318528
0.00307518
0.00280733
0.00263351
0.00264763
0.00310674
0.00352833
0.00413625
0.00372971
0.00343107
0.00321903
0.00280626
0.00271343
0.00281225
0.00257834
0.00263844
0.00370786
0.0035434
0.0035407
0.00407026
0.00283141
0.00256485
0.00292014
0.00349527
0.00285193
0.00266508
0.00328954
0.00326796
0.00363421
0.00299388
0.0024987
0.00267863
0.00309114
0.00293554
0.00291685
0.00275262
0.00304415
0.00316687
0.00284323
0.00250829
0.00256887
0.00343275
0.00275019
0.00284862
0.00284806
0.00289255
0.00302203
0.00285106
0.00259248
0.00269243
0.00349892
0.00276738
0.00264052
0.00284597
0.00291045
0.00314136
0.00278003
0.00275401
0.00296999
0.0031255
0.00280027
0.00268304
0.00276238
0.00308991
0.0032484
0.00369042
0.00267203
0.00275048
0.00335131
0.00297444
0.00289622
0.00291302
0.00302004
0.00325924
0.00352481
0.00409174
0.00268923
0.00258178
0.00269607
0.00276291
0.00279457
0.00284617
0.00299108
0.00323798
0.00351412
0.00391352
0.00328722
0.00272838
0.00273213
0.00281239
0.00291734
0.00307836
0.00344633
0.00415116
0.00382847
0.00375292
0.00342828
0.00385325
0.00390824
0.00358924
0.00334584
0.00315305
0.00282633
0.00275181
0.00280894
0.0033073
0.00383358
0.00391422
0.00362577
0.00331619
0.0031066
0.00278781
0.00263665
0.00260866
0.00256267
0.00271783
0.00366784
0.00334991
0.00338282
0.00363421
0.00288052
0.00258852
0.00281288
0.00332836
0.00273915
0.00264518
0.00310425
0.00302181
0.00328878
0.00314007
0.00252505
0.00260299
0.00337552
0.0029828
0.00291103
0.00270145
0.00294511
0.0030223
0.00285703
0.00253958
0.00251453
0.00330407
0.00279256
0.00286888
0.00286573
0.00277715
0.00289301
0.00286192
0.00264467
0.00264481
0.00336209
0.00281641
0.00266757
0.00285195
0.0028203
0.00289375
0.00273739
0.00267953
0.00291978
0.0033494
0.0028577
0.00272001
0.00276178
0.00297335
0.00300246
0.00330254
0.00274547
0.0026146
0.00304474
0.00294214
0.0028795
0.0029147
0.00292795
0.00305262
0.00330931
0.00408472
0.00289334
0.00259674
0.00263651
0.00269405
0.00272757
0.0027753
0.00288845
0.00308049
0.00333791
0.00383139
0.00362525
0.00290536
0.00278738
0.00280329
0.00285191
0.00293381
0.00312685
0.00351895
0.00348085
0.00380337
0.00356292
0.00399337
0.00390854
0.00375656
0.00368957
0.00323454
0.00286943
0.00276968
0.00282177
0.00327496
0.00413961
0.00379832
0.0035951
0.00348552
0.00310979
0.00276269
0.00265129
0.00262971
0.00258183
0.00276016
0.00406481
0.00343621
0.00342105
0.00362381
0.00290046
0.00259045
0.00274465
0.00302069
0.00267711
0.00263181
0.00342259
0.00296595
0.00314781
0.0031738
0.00254303
0.00255337
0.00336767
0.00306287
0.00290434
0.00266954
0.00303335
0.0028684
0.00280703
0.00256329
0.00248356
0.00303332
0.00286136
0.00287579
0.00289117
0.00268731
0.00294919
0.0027623
0.00266998
0.00261759
0.00310068
0.00290617
0.00269307
0.00283737
0.00274222
0.00274395
0.00282866
0.00265071
0.00286794
0.00349398
0.00294305
0.00275807
0.00275609
0.00288096
0.00284855
0.00308781
0.00281687
0.00262334
0.00283462
0.00292439
0.00285756
0.00289844
0.00288415
0.00289928
0.00310078
0.00377145
0.00300911
0.00266645
0.00259075
0.00262824
0.00266701
0.00272526
0.00282221
0.00294018
0.00317513
0.00356982
0.00343662
0.0031141
0.00282245
0.00277016
0.00278482
0.00282043
0.00292723
0.00315498
0.00326477
0.00345313
0.00375036
0.00409644
0.0036925
0.00333158
0.00322287
0.00308731
0.00282011
0.00275936
0.00284982
0.00307517
0.00429077
0.00371586
0.00347559
0.00335391
0.00312869
0.00283173
0.00268783
0.00261731
0.00260313
0.00274816
0.00393983
0.0035115
0.00342691
0.0035823
0.00294151
0.0026051
0.00271633
0.00288647
0.00264969
0.00262981
0.00373527
0.00311628
0.00318621
0.00319377
0.00256824
0.0025281
0.00313125
0.00312486
0.00289825
0.0026912
0.00315014
0.0028149
0.00276271
0.00257055
0.00246705
0.00287083
0.00294572
0.00287516
0.00294629
0.00268278
0.00292708
0.0027321
0.00264945
0.00259542
0.00293931
0.00303735
0.00272271
0.00282441
0.00273913
0.00263129
0.0028169
0.00268369
0.00283584
0.00336781
0.00304031
0.0028003
0.00275138
0.00282409
0.00275897
0.00289251
0.00284769
0.00263996
0.00271788