/*--------------------------------*- C++ -*----------------------------------*\
| =========                 |                                                 |
| \\      /  F ield         | OpenFOAM: The Open Source CFD Toolbox           |
|  \\    /   O peration     | Version:  2406                                  |
|   \\  /    A nd           | Website:  www.openfoam.com                      |
|    \\/     M anipulation  |                                                 |
\*---------------------------------------------------------------------------*/
FoamFile
{
    version     2.0;
    format      ascii;
    arch        "LSB;label=32;scalar=64";
    class       volScalarField;
    location    "0.1";
    object      nut;
}
// * * * * * * * * * * * * * * * * * * * * * * * * * * * * * * * * * * * * * //

dimensions      [0 2 -1 0 0 0 0];

internalField   uniform 0;

boundaryField
{
    walls
    {
        type            nutUSpaldingWallFunction;
        value           nonuniform List<scalar> 
2000
(
3.83615e-08
4.22105e-08
3.94929e-08
3.31059e-08
3.0394e-08
2.91239e-08
2.71906e-08
3.18806e-08
3.76084e-08
3.63007e-08
1.89587e-08
2.46032e-08
2.29753e-08
2.16473e-08
1.50719e-08
7.11907e-09
6.23722e-09
1.03559e-08
5.59242e-09
1.05859e-09
9.57156e-08
1.04e-07
9.02966e-08
8.33276e-08
7.73885e-08
6.02481e-08
7.47716e-08
1.21082e-07
2.22435e-07
2.17349e-07
7.01685e-08
1.53639e-07
2.21562e-07
2.12137e-07
1.53446e-07
9.69335e-08
9.11281e-08
9.75991e-08
6.90438e-08
2.67077e-08
1.50291e-09
2.26888e-08
7.46343e-08
8.99319e-08
5.92677e-08
1.58767e-08
4.04547e-08
8.3587e-08
8.244e-08
5.22481e-08
2.66915e-08
2.24659e-08
3.2804e-08
4.96481e-08
8.45203e-08
1.07606e-07
1.21418e-07
1.17817e-07
6.23e-08
1.54402e-08
7.41564e-08
1.03308e-07
1.415e-07
1.80784e-07
2.72844e-07
3.49808e-07
3.17393e-07
2.23837e-07
1.37344e-07
8.92481e-08
9.22443e-08
1.34756e-07
2.35414e-07
4.03197e-07
6.21858e-07
7.8832e-07
7.81028e-07
7.28893e-07
7.18074e-07
6.38458e-07
1.45298e-07
4.33232e-07
9.09183e-07
1.53627e-06
2.19867e-06
2.68959e-06
2.88636e-06
2.68936e-06
2.08729e-06
1.36368e-06
2.49281e-07
5.28333e-07
9.24718e-07
1.39228e-06
1.77144e-06
1.86572e-06
1.56735e-06
1.04272e-06
6.00132e-07
3.32112e-07
1.16351e-07
1.69201e-07
2.9392e-07
5.04484e-07
6.4001e-07
5.32571e-07
2.56459e-07
3.63756e-08
4.68408e-08
2.14524e-08
2.86099e-07
4.55607e-07
6.08516e-07
6.76735e-07
6.90609e-07
6.39185e-07
4.95654e-07
3.73938e-07
2.84533e-07
1.39288e-07
1.10762e-06
1.5529e-06
1.88172e-06
2.27816e-06
2.78581e-06
3.23091e-06
3.09276e-06
2.39867e-06
1.64667e-06
9.87613e-07
1.21343e-06
1.81277e-06
2.2018e-06
2.48929e-06
2.9429e-06
3.4465e-06
3.54478e-06
3.0298e-06
2.29322e-06
1.67098e-06
6.10127e-07
1.14918e-06
1.74181e-06
2.0728e-06
2.26267e-06
2.61269e-06
2.86591e-06
2.55957e-06
1.96989e-06
1.48263e-06
6.44874e-07
1.34224e-06
2.11821e-06
2.66759e-06
3.08482e-06
3.65087e-06
4.09081e-06
3.40328e-06
2.40581e-06
1.66679e-06
8.91547e-07
1.57811e-06
2.34838e-06
3.00783e-06
3.53158e-06
3.84719e-06
3.63239e-06
2.81736e-06
1.88721e-06
1.28214e-06
8.0671e-07
1.36388e-06
2.03039e-06
2.50001e-06
2.60017e-06
2.3652e-06
1.87089e-06
1.33814e-06
9.66666e-07
6.10966e-07
7.16079e-07
1.13908e-06
1.6788e-06
2.00626e-06
1.88612e-06
1.52652e-06
1.0736e-06
7.02121e-07
4.83956e-07
2.85173e-07
8.14865e-07
1.20892e-06
1.67618e-06
2.29114e-06
2.62429e-06
2.37652e-06
1.8004e-06
1.22473e-06
7.71518e-07
4.20946e-07
3.92332e-07
7.47458e-07
1.08249e-06
1.63703e-06
2.28328e-06
2.54115e-06
2.24049e-06
1.58476e-06
9.99669e-07
5.6021e-07
3.64761e-07
7.21532e-07
1.04216e-06
1.63891e-06
2.30561e-06
2.59449e-06
2.36905e-06
1.7772e-06
1.17617e-06
7.03102e-07
5.30667e-07
8.68211e-07
1.16834e-06
1.71114e-06
2.28112e-06
2.56268e-06
2.42166e-06
1.88902e-06
1.27811e-06
8.16532e-07
5.38864e-07
8.37745e-07
1.10832e-06
1.50173e-06
1.86693e-06
2.07899e-06
1.98508e-06
1.56484e-06
1.1216e-06
7.56077e-07
3.42872e-07
5.82876e-07
7.27106e-07
8.42668e-07
9.53289e-07
1.1071e-06
1.12093e-06
9.03813e-07
7.04173e-07
5.29006e-07
2.88524e-07
5.7777e-07
8.04217e-07
9.36894e-07
1.02935e-06
1.08292e-06
1.00315e-06
7.75192e-07
5.69124e-07
4.11821e-07
4.72323e-07
8.67324e-07
1.33905e-06
1.95573e-06
2.49863e-06
2.11198e-06
1.41779e-06
9.71788e-07
6.5708e-07
4.42724e-07
5.06188e-07
8.9178e-07
1.64152e-06
2.83105e-06
3.35232e-06
2.54294e-06
1.49009e-06
9.54677e-07
6.26116e-07
4.36305e-07
2.25741e-07
3.57537e-07
8.60877e-07
1.81666e-06
2.34183e-06
1.8557e-06
1.0692e-06
6.66899e-07
4.28404e-07
3.33142e-07
2.20606e-07
2.4197e-07
4.18901e-07
7.67552e-07
9.7471e-07
8.10151e-07
4.86796e-07
3.06821e-07
2.10531e-07
2.15984e-07
4.5804e-07
4.57454e-07
4.32256e-07
4.85622e-07
5.1182e-07
4.50108e-07
3.18998e-07
1.34223e-07
2.86033e-08
2.29079e-08
5.51076e-07
8.39985e-07
1.00085e-06
1.32752e-06
1.77617e-06
1.98445e-06
1.72828e-06
1.13759e-06
5.76317e-07
2.84826e-07
1.90899e-07
6.79239e-07
1.03953e-06
1.28782e-06
1.70471e-06
1.97239e-06
1.7711e-06
1.24226e-06
7.05107e-07
4.42584e-07
1.2515e-07
4.26316e-07
9.51095e-07
1.16417e-06
1.21816e-06
1.10494e-06
7.28602e-07
3.61698e-07
1.75002e-07
1.45072e-07
2.65831e-07
5.04823e-07
1.24919e-06
1.95014e-06
2.17362e-06
1.63608e-06
6.34711e-07
3.86204e-08
2.05398e-08
2.90054e-08
6.79661e-07
1.59942e-06
3.47949e-06
4.76445e-06
4.01424e-06
1.70434e-06
3.60778e-07
6.80112e-07
6.49461e-07
4.35224e-07
2.70309e-06
5.25339e-06
7.46478e-06
7.12303e-06
5.03991e-06
3.11598e-06
2.07205e-06
1.47126e-06
9.60995e-07
5.84907e-07
6.08099e-06
1.16045e-05
1.52678e-05
1.32898e-05
1.03651e-05
8.41483e-06
6.05377e-06
4.04577e-06
1.99644e-06
5.15388e-07
6.24069e-06
1.30135e-05
2.11034e-05
2.58531e-05
2.61259e-05
2.42898e-05
2.20478e-05
1.78307e-05
1.09609e-05
5.42958e-06
1.20902e-06
3.03831e-06
7.45112e-06
1.4523e-05
2.30963e-05
3.16376e-05
3.75757e-05
3.36636e-05
1.81007e-05
5.08277e-06
1.02093e-05
1.46607e-05
1.47321e-05
6.94848e-06
7.50237e-07
6.68962e-06
1.05937e-05
7.53133e-06
1.27722e-06
1.78378e-06
3.11334e-05
4.92471e-05
5.94152e-05
5.26226e-05
3.67492e-05
2.44569e-05
2.08018e-05
2.32879e-05
2.96302e-05
3.63039e-05
2.7264e-05
4.17177e-05
5.28191e-05
6.04014e-05
7.69426e-05
9.29498e-05
9.33502e-05
8.46127e-05
7.29718e-05
6.00493e-05
1.6302e-05
2.68488e-05
4.68203e-05
8.12329e-05
0.0001115
0.000114455
9.95622e-05
8.71301e-05
7.40386e-05
5.35835e-05
1.21261e-05
2.79686e-05
5.68622e-05
9.20033e-05
0.000110646
9.95787e-05
8.29576e-05
7.24851e-05
6.22086e-05
4.09185e-05
1.31008e-05
3.26688e-05
6.3972e-05
9.66283e-05
0.000110016
9.84737e-05
8.17824e-05
6.89266e-05
5.52629e-05
3.38136e-05
2.24382e-05
4.75078e-05
7.96384e-05
0.000107153
0.000113603
0.000101862
8.57829e-05
7.07281e-05
5.39291e-05
3.28899e-05
3.73419e-05
6.13905e-05
8.29418e-05
9.43041e-05
9.01659e-05
7.83801e-05
6.48828e-05
5.27707e-05
3.95572e-05
2.56857e-05
3.03817e-05
3.95482e-05
4.17041e-05
3.80342e-05
3.0712e-05
2.2585e-05
1.62147e-05
1.2541e-05
9.26152e-06
6.17719e-06
7.90865e-06
8.95943e-06
7.09468e-06
3.0603e-06
3.37471e-07
1.83117e-06
4.16148e-06
3.95201e-06
2.64005e-06
1.39318e-06
3.14633e-08
3.15736e-08
2.5321e-08
1.8322e-08
1.59225e-08
1.65183e-08
1.90688e-08
2.77906e-08
3.5453e-08
3.60616e-08
4.76829e-09
7.91044e-09
1.22876e-08
9.67115e-09
3.69025e-09
9.13211e-09
1.82868e-08
1.52494e-08
8.1412e-09
1.18024e-08
7.30362e-08
8.00754e-08
3.09103e-08
3.07129e-09
6.88365e-09
1.16365e-08
2.65308e-08
1.20768e-07
2.05582e-07
1.44836e-07
2.10187e-08
4.42724e-08
3.00962e-08
3.19797e-09
1.57496e-08
1.48148e-09
7.00298e-08
1.69308e-07
1.38456e-07
6.58664e-08
1.11924e-08
3.06978e-08
6.37774e-08
6.56383e-08
5.49848e-08
4.08507e-08
5.3648e-08
4.49536e-08
5.86563e-09
2.3251e-09
1.15979e-07
1.40834e-07
1.94825e-07
2.43691e-07
2.30287e-07
1.93277e-07
1.63234e-07
1.1638e-07
6.72179e-08
3.58672e-08
2.39106e-07
3.03559e-07
3.74762e-07
4.60569e-07
5.35824e-07
5.34767e-07
4.44834e-07
2.9964e-07
1.39414e-07
6.70348e-08
1.4106e-07
2.36561e-07
3.42895e-07
4.55407e-07
5.49622e-07
5.58335e-07
4.47082e-07
2.84002e-07
1.35268e-07
8.97099e-08
9.5961e-08
1.83897e-07
3.01462e-07
4.44168e-07
5.994e-07
6.6072e-07
5.28063e-07
3.38153e-07
1.88901e-07
1.21229e-07
1.39978e-07
2.56279e-07
4.5924e-07
7.01796e-07
1.00936e-06
1.13091e-06
8.70687e-07
5.82352e-07
3.69332e-07
2.06464e-07
1.62572e-07
2.77591e-07
4.26749e-07
6.55034e-07
9.66299e-07
1.14229e-06
1.04224e-06
7.79838e-07
4.3333e-07
1.64571e-07
2.27952e-07
4.18232e-07
6.43156e-07
9.93622e-07
1.52176e-06
1.77515e-06
1.80375e-06
1.68759e-06
1.21186e-06
5.2782e-07
6.22586e-07
1.07846e-06
1.74023e-06
2.40634e-06
2.90451e-06
3.14176e-06
3.31489e-06
3.04147e-06
2.20137e-06
1.28571e-06
7.53661e-07
1.09441e-06
1.69034e-06
2.29371e-06
2.76632e-06
3.24727e-06
3.59745e-06
3.01589e-06
1.90353e-06
1.233e-06
3.37013e-07
4.6827e-07
7.00882e-07
9.95241e-07
1.32525e-06
1.60792e-06
1.56571e-06
1.01147e-06
7.3058e-07
5.52851e-07
3.6878e-07
5.03098e-07
6.90343e-07
1.02981e-06
1.37324e-06
1.60568e-06
1.53512e-06
1.16717e-06
8.09756e-07
5.40104e-07
1.26606e-06
1.71033e-06
2.03456e-06
2.75395e-06
3.6291e-06
3.57074e-06
2.65017e-06
1.87249e-06
1.28305e-06
8.12159e-07
4.27223e-06
6.58517e-06
8.14396e-06
8.87691e-06
8.54469e-06
7.24283e-06
5.54e-06
3.60471e-06
1.91796e-06
8.94482e-07
4.64867e-06
7.16202e-06
1.01777e-05
1.25704e-05
1.28223e-05
1.02524e-05
6.81168e-06
4.25825e-06
2.49795e-06
1.0926e-06
1.10711e-06
1.87459e-06
3.026e-06
4.33767e-06
5.36439e-06
5.45406e-06
4.44505e-06
2.95574e-06
1.74051e-06
9.37379e-07
1.24826e-07
2.713e-07
6.36352e-07
1.22797e-06
1.86695e-06
2.16568e-06
1.87859e-06
1.09258e-06
4.79783e-07
2.97589e-07
3.35178e-07
7.31454e-07
1.29735e-06
2.10573e-06
2.82683e-06
3.00902e-06
2.38614e-06
1.31207e-06
5.67714e-07
2.8476e-07
8.4835e-07
1.46018e-06
2.22554e-06
3.01913e-06
3.58954e-06
3.40159e-06
2.58956e-06
1.64712e-06
9.13792e-07
4.79007e-07
6.93125e-07
1.07594e-06
1.51743e-06
2.08351e-06
2.49494e-06
2.59603e-06
2.34813e-06
1.73489e-06
1.04328e-06
5.74234e-07
8.79723e-08
1.47723e-07
2.57867e-07
4.56521e-07
7.61573e-07
1.13027e-06
1.32922e-06
1.12715e-06
7.46456e-07
4.11959e-07
8.01445e-08
9.20886e-08
6.86128e-08
1.19746e-07
3.89143e-07
8.46142e-07
1.11914e-06
9.16423e-07
6.26038e-07
3.31151e-07
4.73819e-08
2.23764e-08
4.40811e-08
2.74959e-07
6.63263e-07
1.05753e-06
1.19959e-06
1.13272e-06
9.27365e-07
5.36343e-07
8.81507e-08
1.59446e-07
2.92089e-07
5.46355e-07
8.25484e-07
1.03575e-06
1.1586e-06
1.1915e-06
1.00995e-06
5.88625e-07
1.38097e-07
2.03039e-07
3.2081e-07
6.1766e-07
1.0124e-06
1.24903e-06
1.17643e-06
9.39285e-07
6.49927e-07
3.2666e-07
8.36416e-08
1.49141e-07
1.73979e-07
3.5926e-07
7.94354e-07
1.25246e-06
1.34482e-06
1.02492e-06
5.93951e-07
2.86203e-07
5.89468e-09
5.47531e-08
6.59366e-08
6.41014e-08
2.61706e-07
6.67211e-07
1.05081e-06
1.08726e-06
7.82129e-07
4.75635e-07
5.88601e-08
9.79869e-09
2.75732e-08
3.14864e-08
4.35685e-08
1.27837e-07
2.07037e-07
2.86188e-07
3.16769e-07
3.22923e-07
1.40462e-07
2.40215e-07
1.71024e-07
1.75181e-07
2.57496e-07
3.13424e-07
2.63242e-07
1.55098e-07
4.79186e-08
2.00041e-08
4.18839e-07
7.98625e-07
1.05379e-06
1.15527e-06
1.11149e-06
9.30083e-07
7.0232e-07
4.74305e-07
2.81394e-07
1.51143e-07
5.7532e-07
9.97004e-07
1.29024e-06
1.39568e-06
1.28008e-06
9.74825e-07
6.14856e-07
4.0739e-07
3.49885e-07
3.39415e-07
6.21756e-08
1.44539e-07
2.89156e-07
3.84993e-07
3.81108e-07
3.14688e-07
3.08821e-07
4.24846e-07
5.32557e-07
6.80652e-07
7.73036e-07
1.48578e-06
2.04132e-06
2.11338e-06
2.03758e-06
2.19924e-06
2.36375e-06
2.33532e-06
2.06575e-06
2.00383e-06
1.80903e-06
3.20088e-06
4.30629e-06
4.92748e-06
5.77156e-06
6.78972e-06
7.21629e-06
6.69088e-06
5.47114e-06
4.64066e-06
1.73781e-07
3.749e-07
5.96729e-07
6.94813e-07
9.71048e-07
1.75333e-06
2.82598e-06
3.59539e-06
3.83917e-06
4.58799e-06
6.48074e-06
1.12603e-05
1.63824e-05
2.13665e-05
2.25281e-05
1.90817e-05
1.27362e-05
6.1339e-06
2.09513e-06
9.14606e-07
2.96954e-05
4.76157e-05
6.45838e-05
7.78496e-05
8.2998e-05
7.90194e-05
6.71117e-05
4.90008e-05
2.88464e-05
1.19342e-05
4.26899e-05
6.22265e-05
7.89523e-05
9.00993e-05
9.41216e-05
9.16476e-05
8.29429e-05
6.76976e-05
4.68699e-05
2.74814e-05
3.38386e-05
4.79239e-05
5.91897e-05
6.60796e-05
6.85068e-05
6.70493e-05
6.12946e-05
5.10447e-05
3.73941e-05
2.59661e-05
2.17894e-05
3.03865e-05
3.70711e-05
4.17038e-05
4.4593e-05
4.50553e-05
4.16868e-05
3.4528e-05
2.50678e-05
1.72859e-05
1.54052e-05
2.14331e-05
2.5588e-05
2.8797e-05
3.17496e-05
3.26829e-05
3.00173e-05
2.37769e-05
1.61832e-05
1.08093e-05
1.5103e-05
2.05226e-05
2.26504e-05
2.40299e-05
2.6478e-05
2.80253e-05
2.69003e-05
2.2306e-05
1.552e-05
1.03928e-05
2.13561e-05
2.91139e-05
2.98564e-05
2.87882e-05
3.08794e-05
3.47751e-05
3.76447e-05
3.58153e-05
2.82285e-05
1.94911e-05
3.31931e-05
4.47175e-05
4.61654e-05
4.31101e-05
4.44179e-05
4.9815e-05
5.57674e-05
5.64837e-05
4.87798e-05
3.61779e-05
4.04685e-05
5.48259e-05
6.18116e-05
6.12699e-05
5.92484e-05
5.78542e-05
5.68986e-05
5.31192e-05
4.36642e-05
3.18105e-05
3.45958e-05
4.89917e-05
6.29635e-05
7.02163e-05
6.83542e-05
5.91138e-05
4.61997e-05
3.3208e-05
2.13918e-05
1.19038e-05
3.55615e-08
3.42251e-08
2.55721e-08
1.69213e-08
1.42552e-08
1.33297e-08
1.58015e-08
2.39417e-08
3.1629e-08
3.18347e-08
4.504e-09
4.3707e-09
1.2735e-08
1.46834e-08
7.26602e-09
2.53483e-09
6.5262e-09
1.19521e-08
9.48198e-09
5.505e-09
1.7969e-07
2.40063e-07
1.51907e-07
4.67936e-08
1.57739e-08
1.3612e-09
7.5753e-09
2.06401e-08
5.42573e-08
6.26038e-08
5.74669e-08
1.14775e-07
1.45796e-07
7.57484e-08
4.53954e-09
1.28341e-08
1.85202e-08
3.39378e-08
4.78853e-08
2.76326e-08
1.4371e-08
1.59258e-08
2.60354e-08
2.5322e-08
1.42566e-08
4.38713e-08
7.53242e-08
8.40696e-08
5.52821e-08
2.03971e-08
4.53499e-08
1.04688e-07
1.80998e-07
2.16727e-07
2.19483e-07
2.1888e-07
2.13452e-07
1.97939e-07
1.60394e-07
1.24948e-07
6.8555e-08
1.65525e-07
3.86966e-07
5.83689e-07
6.66033e-07
6.37124e-07
5.38127e-07
4.63166e-07
3.80065e-07
2.52061e-07
1.06134e-07
1.3957e-07
2.97009e-07
5.12898e-07
6.66307e-07
6.70559e-07
5.61802e-07
4.40074e-07
3.07126e-07
1.55459e-07
2.07869e-07
3.11228e-07
4.29008e-07
6.10369e-07
7.97674e-07
7.69442e-07
5.64733e-07
3.75041e-07
2.32962e-07
1.07068e-07
2.77685e-07
4.97146e-07
6.91189e-07
8.75877e-07
1.15063e-06
1.16959e-06
8.00004e-07
4.75707e-07
2.73838e-07
1.45106e-07
1.7966e-07
4.21717e-07
6.90408e-07
8.07188e-07
9.08968e-07
8.89332e-07
6.3894e-07
4.16513e-07
2.73751e-07
1.62009e-07
4.22911e-07
1.06984e-06
1.51764e-06
1.53798e-06
1.50795e-06
1.34815e-06
9.34715e-07
6.15221e-07
3.94818e-07
2.22548e-07
1.02111e-06
1.832e-06
2.43257e-06
2.51448e-06
2.54257e-06
2.5165e-06
2.2108e-06
1.69188e-06
1.11347e-06
6.44394e-07
8.60824e-07
1.30678e-06
2.00982e-06
2.34936e-06
2.29711e-06
2.22872e-06
2.07137e-06
1.68449e-06
1.266e-06
8.77498e-07
5.16264e-07
6.82654e-07
9.71894e-07
1.27805e-06
1.30767e-06
1.1656e-06
9.91244e-07
7.43162e-07
5.86225e-07
4.12766e-07
6.01598e-07
8.61454e-07
1.21294e-06
1.5205e-06
1.45356e-06
1.3296e-06
1.00043e-06
7.28999e-07
6.03804e-07
4.18871e-07
8.24138e-07
1.29104e-06
1.86589e-06
2.65334e-06
3.40997e-06
3.20546e-06
2.39174e-06
1.81597e-06
1.60494e-06
1.24634e-06
9.00648e-07
1.8208e-06
3.34254e-06
5.23839e-06
6.55475e-06
7.27451e-06
7.50579e-06
7.16454e-06
6.13929e-06
4.23571e-06
1.0788e-06
2.28704e-06
3.63083e-06
5.21974e-06
7.22208e-06
8.82884e-06
9.35526e-06
8.46082e-06
6.64904e-06
4.57748e-06
8.44412e-07
1.4055e-06
2.25179e-06
3.35571e-06
4.23391e-06
4.25825e-06
3.50546e-06
2.5118e-06
1.70295e-06
1.10194e-06
3.01722e-07
4.15354e-07
8.60307e-07
1.55423e-06
1.80066e-06
1.55989e-06
1.05117e-06
5.42989e-07
2.05053e-07
9.28111e-08
3.55023e-07
6.272e-07
1.16698e-06
2.06429e-06
2.89036e-06
2.77012e-06
1.98643e-06
1.17068e-06
6.4507e-07
3.11531e-07
5.79105e-07
1.09221e-06
1.67477e-06
2.40899e-06
3.16872e-06
3.41418e-06
2.97205e-06
2.22774e-06
1.45438e-06
8.32821e-07
5.94952e-07
1.15154e-06
1.77872e-06
2.17526e-06
2.38486e-06
2.32727e-06
1.97476e-06
1.50529e-06
1.02158e-06
6.50547e-07
3.35161e-07
6.81281e-07
1.09516e-06
1.27896e-06
1.11131e-06
7.42543e-07
4.20388e-07
2.2089e-07
7.0352e-08
5.02748e-08
9.37707e-08
2.45427e-07
4.74889e-07
6.4134e-07
4.37297e-07
1.26051e-07
2.27646e-09
8.08258e-08
1.84041e-07
1.21168e-07
6.58893e-08
1.79963e-07
2.92247e-07
4.08024e-07
3.38883e-07
1.15824e-07
1.1291e-08
1.41608e-07
2.3335e-07
1.12642e-07
2.43138e-07
5.19672e-07
6.90486e-07
8.06561e-07
7.88859e-07
5.94066e-07
2.55167e-07
1.575e-08
5.74193e-08
5.55516e-08
5.3088e-07
9.6464e-07
1.09855e-06
1.01096e-06
8.31813e-07
5.71461e-07
2.56975e-07
1.66714e-08
3.29467e-08
7.22255e-08
5.50743e-07
1.15355e-06
1.55914e-06
1.53135e-06
1.19393e-06
8.30969e-07
4.65616e-07
2.05534e-07
5.72563e-08
2.1659e-08
6.29642e-07
1.26006e-06
1.7844e-06
1.81621e-06
1.2837e-06
6.29787e-07
2.81059e-07
1.9759e-07
1.07092e-07
1.07524e-08
4.81377e-07
9.87818e-07
1.50405e-06
1.55034e-06
1.13081e-06
5.73924e-07
1.34576e-07
4.92166e-08
5.88471e-08
1.73786e-09
3.12763e-07
9.74908e-07
1.62493e-06
1.8696e-06
1.6623e-06
1.0162e-06
3.8825e-07
1.40806e-07
1.32861e-07
8.81736e-08
7.47488e-08
3.91588e-07
8.79769e-07
1.31038e-06
1.5344e-06
1.48122e-06
1.16732e-06
8.44783e-07
5.05805e-07
2.74511e-07
3.855e-07
2.75108e-07
2.76102e-07
4.01988e-07
6.4849e-07
9.20422e-07
1.09353e-06
1.06521e-06
8.25883e-07
5.16598e-07
8.04293e-07
6.85801e-07
6.59245e-07
6.25806e-07
6.30447e-07
6.49962e-07
5.9593e-07
4.39622e-07
2.30043e-07
9.11578e-08
2.04391e-06
2.1571e-06
2.47816e-06
2.66575e-06
2.68955e-06
2.58305e-06
2.46839e-06
2.11435e-06
1.42646e-06
6.8907e-07
4.5761e-06
5.52905e-06
6.84666e-06
7.59499e-06
7.50255e-06
6.64882e-06
5.72647e-06
4.76687e-06
3.34565e-06
1.52451e-06
5.04458e-06
4.65092e-06
4.36962e-06
3.6475e-06
2.5224e-06
1.45701e-06
9.61234e-07
7.35616e-07
4.6519e-07
1.06662e-07
1.03493e-06
1.32404e-06
4.11674e-06
9.95491e-06
1.6494e-05
2.05992e-05
2.00696e-05
1.57611e-05
1.06981e-05
6.8562e-06
8.85579e-06
2.19395e-05
4.01103e-05
5.89121e-05
7.30692e-05
7.91215e-05
7.49639e-05
6.21908e-05
4.56052e-05
2.9966e-05
2.19106e-05
3.7447e-05
5.68044e-05
7.40341e-05
8.51612e-05
8.9627e-05
8.61918e-05
7.51125e-05
5.90727e-05
4.2232e-05
2.16215e-05
3.15893e-05
4.47691e-05
5.65299e-05
6.40244e-05
6.6704e-05
6.40098e-05
5.61309e-05
4.47826e-05
3.304e-05
1.61344e-05
2.24558e-05
3.05075e-05
3.79397e-05
4.22937e-05
4.27912e-05
3.99262e-05
3.46681e-05
2.79511e-05
2.10611e-05
1.37157e-05
1.85801e-05
2.42582e-05
2.83041e-05
2.98244e-05
2.86652e-05
2.54532e-05
2.15794e-05
1.78081e-05
1.39875e-05
1.70356e-05
2.46379e-05
3.06729e-05
3.222e-05
3.00778e-05
2.59482e-05
2.13927e-05
1.76952e-05
1.5165e-05
1.24765e-05
3.2419e-05
4.5979e-05
5.45036e-05
5.40467e-05
4.64011e-05
3.61246e-05
2.74805e-05
2.21693e-05
1.9489e-05
1.62616e-05
4.38782e-05
5.86693e-05
6.87802e-05
6.93377e-05
6.15499e-05
5.06816e-05
4.15537e-05
3.59606e-05
3.23979e-05
2.65095e-05
2.89583e-05
4.00458e-05
4.92538e-05
5.48213e-05
5.64253e-05
5.6499e-05
5.56608e-05
5.26976e-05
4.61485e-05
3.56699e-05
7.56558e-06
1.41242e-05
2.35734e-05
3.59758e-05
4.9828e-05
6.1137e-05
6.54114e-05
6.04864e-05
4.78286e-05
3.32936e-05
3.59813e-08
3.63665e-08
3.04662e-08
2.57402e-08
2.7647e-08
3.00227e-08
3.42663e-08
4.09925e-08
4.32355e-08
3.82662e-08
2.46682e-09
8.89745e-09
1.21553e-08
6.70703e-09
1.73018e-09
7.10876e-09
1.50868e-08
1.92018e-08
1.54967e-08
9.56435e-09
2.10882e-07
1.96893e-07
1.18756e-07
1.04886e-07
8.00865e-08
8.78447e-08
1.01197e-07
1.30498e-07
1.62003e-07
1.44434e-07
2.75315e-08
5.89287e-08
6.91124e-08
5.95266e-08
5.77856e-08
1.06275e-07
1.64536e-07
1.93286e-07
1.50619e-07
7.24935e-08
5.81654e-08
9.64484e-08
1.08544e-07
7.27324e-08
2.23565e-08
7.88514e-09
5.20267e-08
7.24784e-08
2.9828e-08
1.13257e-08
5.40716e-09
2.46826e-08
6.48989e-08
7.55241e-08
7.38154e-08
6.84604e-08
4.71892e-08
3.45715e-08
2.3003e-08
2.76158e-08
8.50802e-08
1.47989e-07
2.80798e-07
4.26565e-07
4.94303e-07
4.21902e-07
3.01595e-07
2.33696e-07
1.59498e-07
8.66208e-08
6.58438e-07
7.50653e-07
7.89007e-07
8.758e-07
8.8187e-07
6.47929e-07
4.17893e-07
2.67978e-07
1.81898e-07
1.2636e-07
1.37155e-06
2.0902e-06
2.66176e-06
2.87935e-06
2.72081e-06
2.22854e-06
1.52629e-06
9.41647e-07
5.11931e-07
2.21918e-07
3.66813e-07
6.1572e-07
1.01873e-06
1.53405e-06
1.857e-06
1.79624e-06
1.43446e-06
9.98554e-07
6.18377e-07
3.18698e-07
7.63964e-08
1.55419e-07
2.1247e-08
1.41557e-07
3.94693e-07
5.42635e-07
5.10298e-07
3.72495e-07
2.44269e-07
1.55626e-07
1.64377e-07
3.02329e-07
3.43488e-07
4.3516e-07
5.33458e-07
5.56382e-07
5.20071e-07
4.4845e-07
3.30861e-07
1.98516e-07
9.49147e-07
1.53762e-06
2.18304e-06
2.7746e-06
2.91289e-06
2.50721e-06
1.98606e-06
1.55304e-06
1.19182e-06
8.42219e-07
1.70626e-06
2.18065e-06
2.79207e-06
3.34946e-06
3.35922e-06
2.83396e-06
2.1813e-06
1.70467e-06
1.35044e-06
8.89866e-07
1.63813e-06
2.11334e-06
2.51748e-06
2.92038e-06
2.85155e-06
2.5636e-06
2.20955e-06
1.74167e-06
1.19395e-06
6.31066e-07
1.82731e-06
2.50599e-06
3.05405e-06
3.56851e-06
3.43109e-06
3.0143e-06
2.55463e-06
2.01178e-06
1.37417e-06
7.16877e-07
1.31511e-06
1.84314e-06
2.5466e-06
3.17222e-06
3.39513e-06
3.17586e-06
2.73841e-06
2.16841e-06
1.52325e-06
8.85655e-07
6.13921e-07
9.50524e-07
1.25261e-06
1.68612e-06
2.09084e-06
2.28005e-06
2.20095e-06
1.83471e-06
1.29496e-06
7.96339e-07
2.91059e-07
5.14886e-07
7.52859e-07
1.12402e-06
1.5461e-06
1.87278e-06
1.98376e-06
1.67863e-06
1.15047e-06
7.44742e-07
4.35409e-07
8.09464e-07
1.27621e-06
1.88545e-06
2.48421e-06
2.6687e-06
2.29546e-06
1.72684e-06
1.26929e-06
8.42052e-07
5.81155e-07
1.03396e-06
1.61626e-06
2.28483e-06
2.58513e-06
2.30276e-06
1.68917e-06
1.12735e-06
8.02768e-07
4.33207e-07
7.1201e-07
1.18641e-06
1.76387e-06
2.32456e-06
2.47013e-06
2.10127e-06
1.45323e-06
9.34821e-07
6.90582e-07
3.92254e-07
7.91962e-07
1.25499e-06
1.84003e-06
2.32435e-06
2.42491e-06
2.1593e-06
1.6344e-06
1.15378e-06
9.05613e-07
5.69053e-07
6.95658e-07
1.01602e-06
1.42294e-06
1.71684e-06
1.68699e-06
1.49925e-06
1.30227e-06
1.06269e-06
8.58675e-07
5.57386e-07
4.68736e-07
5.60065e-07
6.85903e-07
7.85489e-07
7.02251e-07
5.25642e-07
4.42509e-07
4.41643e-07
4.31114e-07
2.85517e-07
4.1196e-07
4.59374e-07
3.99184e-07
3.49702e-07
2.70368e-07
1.61695e-07
1.23247e-07
1.29839e-07
1.22572e-07
7.25384e-08
4.73405e-07
6.08735e-07
5.33524e-07
4.97081e-07
4.90073e-07
3.86145e-07
2.40768e-07
1.38262e-07
8.61252e-08
5.09416e-08
5.51938e-07
8.78267e-07
9.74886e-07
1.01737e-06
1.02916e-06
9.14874e-07
7.00604e-07
4.55353e-07
2.39038e-07
1.20504e-07
5.04025e-07
8.88524e-07
1.06883e-06
1.11459e-06
1.12361e-06
1.08036e-06
9.56816e-07
7.30362e-07
4.58482e-07
3.13496e-07
3.41373e-07
5.84008e-07
7.04784e-07
6.80311e-07
6.24397e-07
6.62082e-07
7.17063e-07
5.88798e-07
4.06925e-07
3.31473e-07
2.46147e-08
2.89818e-08
1.98612e-08
2.46921e-08
2.58882e-07
6.75159e-07
9.34964e-07
7.45561e-07
4.77063e-07
4.05516e-07
3.24743e-07
5.3015e-07
7.62551e-07
7.44202e-07
2.96394e-07
3.4106e-07
6.09338e-07
5.31703e-07
3.52958e-07
3.26066e-07
5.9649e-07
9.3235e-07
1.25577e-06
1.40881e-06
1.30098e-06
1.06833e-06
7.10012e-07
3.92163e-07
2.48236e-07
2.13553e-07
3.35413e-07
6.64058e-07
9.69212e-07
1.20551e-06
1.56568e-06
1.85909e-06
1.52818e-06
8.06291e-07
2.99234e-07
1.02215e-07
6.19221e-08
3.36687e-07
7.16573e-07
1.09328e-06
1.1167e-06
1.12685e-06
1.30876e-06
9.99323e-07
6.03251e-07
4.21852e-07
3.78658e-07
3.1308e-07
1.13663e-07
7.9933e-07
2.47619e-06
3.53534e-06
3.05992e-06
1.99399e-06
1.17616e-06
7.67438e-07
7.13191e-07
1.14687e-06
1.61662e-06
2.4035e-06
4.10857e-06
6.06369e-06
7.04195e-06
6.38474e-06
4.46213e-06
2.53043e-06
4.32897e-07
1.98308e-06
4.38825e-06
6.8961e-06
9.6358e-06
1.18529e-05
1.43871e-05
1.44525e-05
1.05536e-05
5.76122e-06
4.93487e-06
9.98927e-06
1.68717e-05
2.17443e-05
2.47982e-05
2.70639e-05
2.61523e-05
2.04443e-05
1.25717e-05
6.41555e-06
4.53983e-06
1.69981e-05
3.20641e-05
3.69622e-05
3.19025e-05
2.38179e-05
1.51338e-05
7.90909e-06
3.19161e-06
1.31406e-06
2.40066e-06
6.91116e-07
5.60566e-06
8.74672e-06
6.54055e-06
1.25745e-06
3.90347e-06
1.0496e-05
1.14208e-05
8.02502e-06
3.96005e-05
3.50208e-05
2.96313e-05
2.76107e-05
2.82457e-05
3.25844e-05
3.99219e-05
4.42378e-05
3.74968e-05
2.40534e-05
6.3091e-05
8.01722e-05
9.57478e-05
0.000107619
0.000109396
9.32743e-05
6.55983e-05
4.70416e-05
3.45336e-05
2.205e-05
5.52719e-05
8.04297e-05
9.9628e-05
0.000114145
0.00012646
0.000125189
9.80625e-05
6.18594e-05
3.4338e-05
1.71695e-05
4.15158e-05
6.51623e-05
8.28973e-05
9.59075e-05
0.000108524
0.000113892
9.92813e-05
6.7659e-05
3.73101e-05
1.67515e-05
3.40081e-05
5.45604e-05
7.33268e-05
8.76379e-05
9.98034e-05
0.000105074
9.3294e-05
6.68195e-05
3.94307e-05
1.86465e-05
3.24053e-05
5.10272e-05
6.9849e-05
8.44229e-05
9.63458e-05
0.000102386
9.58192e-05
7.67454e-05
5.38128e-05
3.13269e-05
2.52382e-05
3.73474e-05
5.02822e-05
6.12231e-05
7.16593e-05
7.92845e-05
8.16397e-05
7.58662e-05
6.26701e-05
4.29386e-05
5.95019e-06
8.42162e-06
1.14926e-05
1.47168e-05
2.017e-05
2.63063e-05
3.26586e-05
3.61863e-05
3.45582e-05
2.71684e-05
1.42448e-06
2.65934e-06
3.48685e-06
3.24462e-06
1.14765e-06
5.33598e-08
2.04884e-06
4.47328e-06
5.39268e-06
4.91204e-06
)
;
    }
    inlet
    {
        type            calculated;
        value           uniform 0;
    }
    outlet
    {
        type            calculated;
        value           uniform 0;
    }
}


// ************************************************************************* //
