/*--------------------------------*- C++ -*----------------------------------*\
| =========                 |                                                 |
| \\      /  F ield         | OpenFOAM: The Open Source CFD Toolbox           |
|  \\    /   O peration     | Version:  2406                                  |
|   \\  /    A nd           | Website:  www.openfoam.com                      |
|    \\/     M anipulation  |                                                 |
\*---------------------------------------------------------------------------*/
FoamFile
{
    version     2.0;
    format      ascii;
    arch        "LSB;label=32;scalar=64";
    class       volScalarField;
    location    "0.1";
    object      p;
}
// * * * * * * * * * * * * * * * * * * * * * * * * * * * * * * * * * * * * * //

dimensions      [0 2 -2 0 0 0 0];

internalField   nonuniform List<scalar> 
25000
(
-11947.9
-11948.8
-11950.2
-11950.9
-11951
-11950.8
-11950.6
-11949.8
-11948.8
-11948.6
-11948.9
-11949.1
-11949.7
-11950.2
-11950.3
-11950.3
-11950.3
-11949.7
-11948.8
-11948.9
-11950
-11949.5
-11949.6
-11949.7
-11949.6
-11949.7
-11949.9
-11949.6
-11949.1
-11949.3
-11950.2
-11949.6
-11949.3
-11949.1
-11948.9
-11948.9
-11949.1
-11949.1
-11949
-11949.3
-11949.7
-11949.1
-11948.7
-11948.4
-11948.2
-11948.2
-11948.4
-11948.5
-11948.6
-11948.8
-11948.9
-11948.5
-11948.1
-11947.9
-11947.7
-11947.8
-11948
-11948.2
-11948.3
-11948.5
-11948
-11947.8
-11947.7
-11947.5
-11947.4
-11947.5
-11947.9
-11948
-11948
-11948.2
-11946.8
-11946.7
-11946.9
-11946.9
-11947
-11947.3
-11947.6
-11947.5
-11947.4
-11947.5
-11945.5
-11945.5
-11945.9
-11946.4
-11946.7
-11947
-11947.4
-11947.1
-11946.7
-11946.6
-11945
-11945.3
-11946
-11946.5
-11946.7
-11947.1
-11947.5
-11947.3
-11946.6
-11946
-11958.7
-11959.2
-11960.8
-11962
-11962.5
-11963.1
-11964.1
-11963.9
-11963.8
-11965.1
-11960.3
-11960.5
-11961.3
-11962.3
-11962.6
-11963.2
-11964.9
-11965.3
-11965.3
-11966.5
-11962.3
-11962
-11962
-11962.6
-11962.7
-11963.5
-11965.1
-11965.7
-11966.3
-11967.7
-11962.8
-11962.6
-11962.4
-11962.8
-11962.7
-11963.2
-11964.5
-11965.4
-11966.4
-11967.9
-11962.9
-11962.5
-11962.4
-11962.6
-11962.3
-11962.4
-11963
-11963.7
-11964.7
-11966.4
-11963.1
-11962.9
-11963
-11962.9
-11962.3
-11961.5
-11961.5
-11961.8
-11962.8
-11964.4
-11963.6
-11963.8
-11963.8
-11963.6
-11962.6
-11961.4
-11961.1
-11961.2
-11962.1
-11963.2
-11962.9
-11963.4
-11963.6
-11963.7
-11962.8
-11961.6
-11961.3
-11960.8
-11960.7
-11961.6
-11962.3
-11963
-11963.9
-11964.6
-11963.7
-11962.5
-11962.4
-11961.2
-11959.8
-11959.9
-11963.1
-11964
-11965.4
-11966.2
-11965.2
-11964
-11963.7
-11962.6
-11960.7
-11959.9
-11987.8
-11988.3
-11988.9
-11989.4
-11989.1
-11988.6
-11988.4
-11988.6
-11988.3
-11988.2
-11989
-11989.2
-11988.3
-11987.9
-11987.4
-11986.7
-11987.2
-11988.5
-11988.6
-11987.7
-11990.4
-11989.5
-11986.9
-11985
-11984.6
-11984.4
-11984.9
-11986
-11987
-11987
-11990.8
-11989.5
-11986.3
-11984
-11983.1
-11982.7
-11983.3
-11983.8
-11985.2
-11986.5
-11989.7
-11987.9
-11984.9
-11982.9
-11981.9
-11981.8
-11982.8
-11983.3
-11984.9
-11986.7
-11989.1
-11986.9
-11984.1
-11982
-11981.3
-11981.1
-11981.6
-11982.2
-11984.1
-11985.7
-11989.1
-11987.7
-11984.6
-11981.6
-11980.8
-11980.2
-11979.3
-11979.7
-11982
-11983.9
-11988.8
-11988.1
-11985.2
-11981.5
-11980.1
-11979.6
-11978.5
-11978.7
-11980.6
-11982.8
-11987.4
-11986.7
-11985
-11982.9
-11981.8
-11981.3
-11980.6
-11980.1
-11980.9
-11982.8
-11986.3
-11985.1
-11984.3
-11983.9
-11983.8
-11983
-11982.4
-11982.1
-11982.4
-11983.7
-12007.1
-12006.8
-12006.9
-12007.6
-12008.6
-12007.9
-12007.2
-12008.1
-12009.1
-12008.3
-12004.5
-12004.8
-12005.8
-12006.8
-12007.5
-12006.3
-12005.1
-12007.3
-12009.1
-12008
-12002.5
-12003
-12004.4
-12004.3
-12004
-12003.2
-12003.5
-12006.4
-12007.6
-12006.3
-12002.4
-12002.6
-12002.5
-12000.7
-12000.2
-12000.4
-12002.3
-12005.4
-12006.7
-12005.3
-12002.5
-12002.6
-12001.7
-11999.7
-11999.2
-12001
-12004.5
-12007
-12008.4
-12006.5
-12002.3
-12001.9
-12001.3
-11999.8
-12000.3
-12003.8
-12007.7
-12010
-12010
-12006.4
-12002.4
-12002
-12003
-12002.1
-12002.4
-12005.6
-12007.8
-12009
-12007.5
-12003.3
-12003.4
-12003.6
-12003.9
-12003.2
-12002.8
-12004.8
-12005.2
-12005.4
-12003.5
-12000.1
-12003.1
-12003.2
-12001.9
-12000.7
-12000.7
-12001
-11999.5
-11999.1
-11998.6
-11997.7
-12001
-11999.7
-11997.5
-11995.8
-11995.2
-11993.9
-11991.9
-11991.8
-11993.7
-11997.2
-12019.5
-12018.6
-12018.2
-12018.3
-12018
-12017.2
-12017.5
-12019.8
-12022.4
-12022.7
-12014
-12013.6
-12015.4
-12017.3
-12017.8
-12018.1
-12018.9
-12021.6
-12024.6
-12025.4
-12008.9
-12009
-12011.6
-12013.8
-12015
-12016.8
-12019.7
-12024.3
-12027.2
-12028.2
-12006.7
-12007.7
-12009.1
-12009.1
-12011.5
-12015.6
-12021.4
-12027.4
-12030.1
-12030.5
-12006.9
-12008.3
-12008.8
-12009.3
-12012.7
-12018.2
-12025.3
-12031
-12032.9
-12032.5
-12009
-12010.6
-12011.9
-12013.3
-12016.9
-12022
-12027.2
-12032.7
-12034.4
-12033.4
-12013
-12014.6
-12017.6
-12019.9
-12022.7
-12024.9
-12026.8
-12030.9
-12032.8
-12032.5
-12017.5
-12018.7
-12021.5
-12024.4
-12026.6
-12026.9
-12027
-12028.6
-12029.2
-12028.6
-12020.8
-12021.4
-12022.7
-12024.4
-12026.1
-12026.5
-12026
-12026.6
-12026.2
-12025.6
-12021.3
-12022.1
-12022.9
-12023.7
-12024.9
-12025.5
-12025.7
-12025.8
-12025.6
-12025.2
-11989
-11987.4
-11985.1
-11982.4
-11980.4
-11980.8
-11983.7
-11989.4
-11996.5
-12003.2
-11984
-11982
-11981.5
-11980.4
-11979.6
-11981.1
-11984.1
-11989
-11994.6
-12002
-11981
-11979.2
-11979.4
-11979.2
-11979.6
-11982.4
-11986.8
-11992.1
-11996.3
-12002.4
-11979.9
-11977.6
-11977.3
-11978.1
-11981.2
-11985.9
-11991.7
-11996.7
-11999.7
-12003.9
-11979.6
-11976.9
-11976.4
-11979.8
-11985.3
-11990.6
-11996.8
-12002.9
-12005.3
-12006.5
-11980.9
-11979.9
-11981
-11984.9
-11989
-11990.5
-11995.5
-12005.3
-12009.2
-12008
-11985.9
-11986.1
-11988.4
-11990.5
-11991.4
-11988.8
-11991.2
-12000.8
-12006.3
-12007.3
-11993.2
-11991.8
-11993.3
-11994.3
-11994.7
-11992.6
-11990.8
-11992.3
-11998
-12005.7
-12001.6
-11997.4
-11996.2
-11996.9
-11998.7
-11998.2
-11996.3
-11995.4
-11999.9
-12008
-12009.8
-12006.9
-12005.4
-12004.9
-12005.5
-12006
-12006.6
-12008.2
-12010.8
-12013
-11921.6
-11920
-11916.9
-11914.6
-11915.2
-11917.8
-11923.2
-11932.7
-11944.8
-11957.2
-11918.5
-11916.5
-11913.6
-11911.6
-11911.4
-11913.2
-11918
-11929.2
-11944.5
-11959.8
-11917
-11914.3
-11910
-11907.2
-11909.3
-11913.2
-11918.2
-11929.4
-11944.6
-11959.6
-11916.7
-11912.8
-11906.7
-11907.7
-11915.4
-11922
-11930
-11936.5
-11944.4
-11954.1
-11916.5
-11911.7
-11908.1
-11914.5
-11922
-11929.1
-11940.3
-11946.1
-11943.8
-11944.2
-11916.9
-11913
-11913.9
-11923.1
-11927.3
-11927.4
-11935.5
-11943.5
-11937.1
-11931
-11920
-11917.4
-11920.7
-11930.5
-11932.7
-11922.1
-11913.4
-11917.1
-11918
-11919.4
-11926.2
-11925.4
-11929.2
-11934.2
-11934.1
-11921.3
-11898.4
-11889.5
-11901
-11913.2
-11935.3
-11936.5
-11938.4
-11937.2
-11930.8
-11918
-11901.6
-11892.4
-11900.1
-11914.1
-11945.3
-11948.5
-11948.2
-11942.5
-11932
-11920.5
-11912.6
-11909.4
-11912.6
-11920.1
-11851.4
-11853.3
-11855
-11855.4
-11856
-11857.7
-11861
-11867.4
-11876.7
-11887
-11853
-11852.7
-11852.8
-11852.6
-11851.4
-11850.9
-11855.4
-11865.9
-11879.1
-11891.3
-11853.9
-11852.3
-11850.3
-11848.4
-11847.7
-11846.9
-11852.4
-11866.7
-11881.7
-11892
-11853.7
-11851.7
-11846.9
-11845
-11847.6
-11846.4
-11849.8
-11865.5
-11881.5
-11889.6
-11853.2
-11850.6
-11845.7
-11845
-11846.7
-11846.6
-11852
-11864.9
-11874.9
-11882.7
-11853.7
-11850.4
-11845.7
-11844
-11845.6
-11847
-11851.6
-11860.6
-11864.5
-11870
-11854.6
-11853
-11850.8
-11847.6
-11849.4
-11848.8
-11842.9
-11842.6
-11849.4
-11856.6
-11857
-11859.9
-11862.8
-11859.9
-11858.2
-11852.3
-11835
-11821.1
-11831.4
-11850.7
-11862.8
-11868.5
-11871.9
-11869.4
-11861.5
-11850.7
-11835.6
-11823
-11832.2
-11852
-11870.1
-11875.9
-11876.1
-11872.3
-11863.4
-11851.3
-11842.5
-11842.3
-11846.4
-11855.9
-11785.5
-11789.5
-11792
-11789.5
-11786.8
-11787.8
-11791.9
-11795
-11793.7
-11788.6
-11786.5
-11790.3
-11792.5
-11790.7
-11788.6
-11791.6
-11799.8
-11807.3
-11807.9
-11797.8
-11786.1
-11790.3
-11792.7
-11791.6
-11792.8
-11797.9
-11806.5
-11819.7
-11825.2
-11812.7
-11783.6
-11789.6
-11793.2
-11789.8
-11788.7
-11791.1
-11801.7
-11821.9
-11829.9
-11821.8
-11782.5
-11791.8
-11798.5
-11789.7
-11771.9
-11760
-11768
-11796.6
-11815.1
-11813.7
-11784.8
-11797
-11803.1
-11786.9
-11752.9
-11734.4
-11737.4
-11756.8
-11781.4
-11795.2
-11788.8
-11803.4
-11806.6
-11789.3
-11751.4
-11729.9
-11723.5
-11727.2
-11749.3
-11774.5
-11791.4
-11808
-11813
-11805.8
-11772.4
-11741
-11720.6
-11714.1
-11733.1
-11764.1
-11789
-11806.1
-11815.8
-11812.7
-11793.2
-11763.2
-11736.9
-11728.1
-11742.3
-11762.5
-11781.7
-11795
-11807.8
-11807.3
-11796.2
-11779.3
-11763.3
-11759.7
-11762
-11755.4
-11630.2
-11636.3
-11641.2
-11641.3
-11638.2
-11633.5
-11627.4
-11617.9
-11604.5
-11591.8
-11632.5
-11641.8
-11647.6
-11648.5
-11648.6
-11650
-11649.4
-11637.8
-11611
-11588.5
-11635.5
-11646.3
-11651.8
-11651.1
-11658.8
-11672.8
-11682.9
-11673.7
-11630.1
-11590.3
-11635.6
-11647.8
-11656.6
-11653.9
-11657.7
-11668
-11671
-11669.7
-11642.7
-11597.7
-11633.3
-11649.8
-11668.8
-11662.8
-11641.4
-11623.3
-11613.1
-11616.1
-11622.7
-11604.7
-11630.5
-11652.8
-11677.2
-11664.6
-11615.2
-11569.8
-11550.3
-11555.4
-11589.6
-11605.4
-11626.4
-11652.1
-11679.9
-11657.8
-11594.4
-11543.1
-11524.4
-11533
-11569.9
-11596.5
-11617.7
-11640
-11670.1
-11652.7
-11595.4
-11546.2
-11531.8
-11544.3
-11564.5
-11575.8
-11602.9
-11613.3
-11632
-11633.8
-11607.5
-11578.4
-11567.3
-11567.8
-11562.3
-11547
-11586.6
-11587.5
-11592.8
-11598.5
-11600.6
-11600.7
-11597.4
-11582.9
-11552.1
-11517
-11430.9
-11431.6
-11431.6
-11429.6
-11425
-11417.2
-11411.1
-11412
-11416.4
-11423.5
-11429
-11430.8
-11429.2
-11427.3
-11427.5
-11424.9
-11422.5
-11422.1
-11421.3
-11425.4
-11429
-11432.8
-11430.7
-11428.7
-11437.1
-11449.4
-11455
-11439.5
-11421.1
-11422.1
-11427.2
-11430.8
-11437.3
-11433.7
-11436
-11443.1
-11448.6
-11440.1
-11416.2
-11409.7
-11421
-11425.7
-11444.1
-11442.1
-11419.9
-11402.5
-11399.8
-11411.8
-11404.2
-11399.3
-11411.1
-11418.6
-11448.9
-11444.7
-11398.9
-11365.5
-11366.5
-11381.9
-11386.3
-11393.5
-11404.5
-11414.2
-11446.3
-11440.7
-11393.3
-11366.8
-11365
-11367
-11375.1
-11391.3
-11403.3
-11410.4
-11423.8
-11427.8
-11405.9
-11384.9
-11372.1
-11367.4
-11375.4
-11390.8
-11405.4
-11404.2
-11402.6
-11402.7
-11399.1
-11390.2
-11381.9
-11378.1
-11381.9
-11390.7
-11410.5
-11407
-11403.6
-11395.8
-11391.6
-11392.8
-11393.8
-11391.3
-11389.1
-11392.1
-11197.8
-11188
-11177.6
-11165.8
-11156
-11147.9
-11141.2
-11148.2
-11169
-11185.5
-11183.4
-11165.5
-11149.5
-11141.4
-11139.4
-11138.3
-11145.3
-11170.7
-11198.3
-11206
-11171.9
-11149.3
-11132.8
-11134.1
-11143.6
-11155.7
-11174.2
-11207.9
-11227.6
-11226
-11162.5
-11142.9
-11135.4
-11141.9
-11150
-11161
-11185.5
-11227.7
-11240.1
-11229.7
-11154.9
-11142.2
-11147.2
-11154.9
-11142
-11138.9
-11169
-11217.7
-11231.3
-11220
-11148.8
-11140.6
-11156.9
-11166.5
-11142.4
-11134.3
-11155.5
-11187.3
-11202.1
-11208.1
-11145.8
-11145.7
-11170.3
-11185.8
-11173.4
-11162.3
-11155.7
-11161.4
-11178.8
-11204
-11153.7
-11166.6
-11195.8
-11214.2
-11211.2
-11191.3
-11166.3
-11161.4
-11180.4
-11210.6
-11171.3
-11188.6
-11210.5
-11216.6
-11213.6
-11197.1
-11179.7
-11180
-11198.7
-11225.6
-11188.2
-11197.9
-11208.3
-11210.6
-11206.7
-11201.9
-11202.1
-11209
-11223.8
-11240.7
-10887.1
-10876.8
-10867.5
-10860.1
-10854.9
-10848.1
-10841.3
-10843.7
-10854.5
-10859.8
-10869
-10849.3
-10834.7
-10830.7
-10832.8
-10827.9
-10824.1
-10841.9
-10870.2
-10876.4
-10854.2
-10826.3
-10806.4
-10808.1
-10820.5
-10830.9
-10846
-10877.5
-10903.6
-10892.3
-10844.6
-10817.2
-10798
-10809.6
-10825
-10832.2
-10858.2
-10907.2
-10926.2
-10896.1
-10840.1
-10819.4
-10806.4
-10818.9
-10815.6
-10811.9
-10849
-10906.3
-10922.7
-10883.3
-10837.3
-10820.2
-10821.3
-10831.2
-10820.2
-10813.5
-10832.8
-10867.2
-10879.1
-10859.8
-10836.1
-10822
-10841.2
-10859.1
-10860.6
-10842.2
-10815.2
-10813.5
-10831.9
-10847.3
-10840.3
-10838.1
-10864
-10890.7
-10899.5
-10869.1
-10815.1
-10799.6
-10822.3
-10853.1
-10845.5
-10855.3
-10878.5
-10893.9
-10891.7
-10858.6
-10825
-10820.8
-10841.8
-10871.2
-10850.8
-10862.1
-10871
-10872.5
-10863.9
-10849.9
-10844.7
-10851.8
-10869.7
-10888
-10487.8
-10488.6
-10495.5
-10509.4
-10517.3
-10507.1
-10494.2
-10488.9
-10484.4
-10484.8
-10482
-10479.6
-10493
-10517.6
-10523.7
-10498.8
-10474.8
-10475.2
-10487.4
-10492.2
-10483.9
-10479
-10481.9
-10501
-10513.9
-10500.9
-10481.7
-10485.3
-10497.9
-10496.1
-10495.8
-10498.1
-10487.1
-10492.2
-10506.9
-10502.7
-10498.7
-10514.3
-10519.8
-10498.8
-10506.9
-10509.5
-10496.3
-10497.9
-10499.1
-10489.1
-10505.6
-10538.3
-10536.1
-10495.3
-10506.2
-10496.9
-10491.4
-10498.9
-10496.4
-10490.7
-10500.8
-10522
-10514.2
-10480.1
-10503.2
-10484.6
-10485.3
-10505
-10519.9
-10511.9
-10479.3
-10467.5
-10471.7
-10472.4
-10504
-10492.5
-10495.8
-10517.9
-10538.3
-10519.8
-10466.3
-10441.3
-10459
-10477.8
-10502.7
-10504.2
-10507.2
-10514.3
-10516
-10492.9
-10464
-10456.3
-10468.7
-10486
-10509.9
-10516.2
-10516.1
-10512.1
-10502
-10486.5
-10478.1
-10480.8
-10487.6
-10498.1
-10157.1
-10160.9
-10171.2
-10184
-10183.5
-10173.4
-10162.9
-10160
-10165
-10176.5
-10154.9
-10147.8
-10165.5
-10195.6
-10194.3
-10169.8
-10152.7
-10154
-10165.3
-10178.2
-10163.8
-10151.7
-10158.4
-10189.7
-10200.4
-10176.3
-10158.7
-10165.9
-10176.8
-10182.7
-10177.5
-10179.2
-10174
-10181.5
-10193.5
-10189.7
-10186
-10195.7
-10193.9
-10188.1
-10181.6
-10185.2
-10183.8
-10184.4
-10192.8
-10192.7
-10200
-10216.2
-10203.5
-10188.2
-10179.1
-10169.6
-10167.2
-10182.7
-10194.7
-10193.2
-10195.8
-10204
-10191.1
-10174.6
-10178.2
-10163.7
-10161.1
-10186.3
-10206.8
-10202.7
-10181.7
-10171.2
-10167.2
-10164.6
-10184.6
-10174.1
-10180.1
-10198.5
-10214.1
-10202.8
-10166.1
-10149
-10155.8
-10166.9
-10194.9
-10191.8
-10197.2
-10204.3
-10206.1
-10187.9
-10163.7
-10153.6
-10158.1
-10167.3
-10207.7
-10207.9
-10207.7
-10204.2
-10196.1
-10181.8
-10170.8
-10169.5
-10169
-10169.3
-9895.31
-9910.45
-9925.24
-9923.62
-9911.77
-9905.82
-9912.88
-9921.39
-9920.99
-9912.26
-9898.4
-9867.85
-9882.88
-9899.1
-9895.36
-9890.48
-9903.06
-9923.41
-9928.32
-9916.04
-9912.25
-9867.84
-9861.1
-9881.66
-9890.77
-9888.62
-9914.21
-9947.6
-9954.25
-9933.93
-9912.9
-9884.11
-9867.07
-9874.83
-9893.18
-9915.32
-9944.96
-9963.91
-9964.28
-9946
-9902.74
-9882.97
-9873.51
-9882.96
-9900.79
-9921.9
-9942.79
-9957.75
-9956.48
-9934.62
-9896.53
-9878.09
-9869.38
-9897.8
-9915.89
-9921.5
-9920.38
-9923.23
-9919.71
-9910.52
-9901.04
-9889.31
-9897.33
-9925.52
-9935.24
-9921.06
-9898.86
-9894.17
-9893.58
-9893.52
-9906.28
-9905.29
-9928.51
-9947.81
-9952.72
-9919.84
-9887.6
-9878.32
-9880.31
-9887.64
-9902.83
-9905.91
-9929.46
-9948.94
-9950.01
-9920.41
-9889.87
-9875.82
-9873.34
-9878.27
-9893.5
-9893.83
-9909.01
-9927.73
-9926.12
-9908.72
-9893.88
-9884.59
-9875.18
-9865.44
-9538.43
-9561.02
-9589.31
-9584.07
-9554.73
-9527.68
-9522.15
-9527.8
-9527.41
-9518.02
-9548.51
-9514.13
-9531.15
-9543.85
-9528.5
-9512.03
-9516.41
-9523.97
-9518.02
-9504.18
-9573.7
-9515.3
-9487.69
-9500.75
-9513.43
-9534.32
-9567.32
-9569.02
-9544.42
-9510.58
-9573.08
-9530.95
-9492.8
-9508.13
-9537.95
-9574.69
-9598.84
-9597.61
-9571.89
-9523.03
-9547.82
-9519.86
-9502.94
-9530.21
-9544.93
-9563.24
-9576.77
-9575.28
-9550.42
-9510.84
-9518.79
-9500.79
-9518.16
-9557.85
-9557.94
-9539.4
-9520.8
-9510.78
-9498.89
-9484.42
-9508.96
-9500.09
-9547
-9581.09
-9571.54
-9519.83
-9485.49
-9472
-9455.31
-9461.77
-9510.7
-9504.9
-9547.85
-9586.63
-9573.42
-9507.26
-9463.93
-9444.26
-9430.19
-9442.52
-9508.29
-9499.47
-9526.29
-9560.48
-9548.98
-9502.14
-9456.99
-9435.31
-9426.28
-9428.03
-9499.4
-9487.62
-9496.16
-9511.97
-9508.79
-9489.34
-9468.32
-9447.28
-9429.64
-9410.16
-9146.07
-9158.7
-9188.28
-9207.35
-9189.32
-9136.53
-9085.54
-9058.33
-9061.56
-9067.79
-9153.55
-9122.15
-9127.79
-9157.16
-9146.14
-9094.64
-9051.16
-9028.54
-9030.78
-9041.85
-9180.8
-9122.48
-9085.27
-9114.26
-9136.66
-9119.87
-9074.14
-9034.39
-9014.56
-9019.46
-9204.76
-9156.89
-9112.85
-9138.04
-9158.79
-9158.27
-9121.81
-9063.22
-9009.18
-8998.97
-9197.69
-9154.05
-9137.75
-9160.21
-9149.37
-9128.23
-9094.02
-9032.65
-8974.72
-8967.63
-9149.15
-9106.93
-9121.33
-9159.69
-9132.23
-9069.26
-9017.4
-8968.27
-8925.92
-8932.04
-9090.97
-9057.78
-9075.41
-9127.38
-9102.44
-9020.15
-8970.08
-8925.64
-8894.04
-8908.01
-9053.97
-9025.62
-9034.33
-9072.79
-9048.77
-8978.74
-8930.71
-8899.76
-8886.85
-8898.82
-9051.48
-9023.92
-9014.83
-9017.99
-8993.74
-8950.5
-8917.95
-8901.51
-8896.12
-8901.23
-9056.84
-9036.19
-9021.18
-9007.8
-8983.33
-8953.62
-8931.1
-8917.89
-8910.19
-8904.24
-8508.92
-8525.54
-8556.78
-8607.51
-8661.7
-8689.31
-8660.61
-8603.51
-8579.51
-8572.95
-8525.18
-8506.52
-8505.49
-8558.37
-8644.03
-8677.72
-8642.09
-8590.79
-8576.05
-8578.4
-8557.53
-8506.51
-8476.45
-8535.58
-8631.6
-8654.4
-8592.62
-8549.58
-8552.65
-8564.99
-8607.08
-8560.75
-8534.32
-8577.22
-8631.91
-8649.06
-8592.47
-8531.97
-8527.58
-8542.78
-8659.57
-8648.57
-8634.38
-8636.89
-8642.94
-8631.95
-8585.12
-8517.6
-8498.22
-8517.69
-8688.67
-8689.76
-8664.4
-8660.57
-8640.37
-8591.11
-8545.75
-8494.11
-8475.28
-8498.25
-8659.34
-8658.77
-8609.37
-8609.44
-8600.89
-8552.45
-8514.59
-8477.95
-8473.27
-8493.8
-8602.63
-8600.98
-8562.98
-8552.21
-8544.16
-8514.08
-8489.13
-8478.67
-8483.43
-8501.36
-8581.41
-8582.26
-8566.6
-8552.14
-8530.37
-8506.31
-8494.83
-8493.97
-8501.45
-8512.35
-8575.91
-8586.62
-8582.85
-8569.02
-8548.11
-8527.65
-8517.84
-8517.5
-8519.63
-8523.79
-7810.5
-7823.66
-7854.42
-7900.44
-7959.25
-8024.55
-8073.06
-8076.74
-8063.78
-8053.85
-7823.93
-7825.95
-7843.43
-7884.3
-7970.69
-8079.63
-8138.81
-8146.17
-8114.19
-8088.59
-7848.74
-7838.98
-7834.07
-7862
-7964.67
-8089.68
-8145.14
-8144.19
-8129.36
-8105.83
-7886.11
-7878.09
-7858.68
-7893.32
-7980.47
-8082.45
-8128.55
-8115.02
-8118.47
-8104.59
-7933.84
-7957.21
-7955.9
-7978.65
-8031.83
-8085.69
-8104.58
-8087.95
-8095.29
-8092.49
-7989.25
-8060.71
-8079.29
-8083.75
-8091.09
-8097.25
-8095.25
-8076.46
-8077.39
-8084.65
-8030.86
-8126.81
-8144.92
-8139.63
-8121.05
-8104.01
-8085.46
-8072.34
-8075.77
-8086.25
-8036.53
-8139.86
-8153.73
-8136.79
-8116.16
-8096.87
-8082.45
-8079.45
-8082.94
-8092.07
-8031.79
-8104.95
-8141.32
-8143.98
-8124.27
-8101.05
-8088.19
-8086.67
-8091.29
-8098.55
-8029.84
-8077.2
-8112.34
-8124.86
-8115.65
-8102.22
-8096.77
-8097.61
-8100.98
-8105.96
-7460.41
-7448.48
-7447.97
-7458.66
-7478.09
-7502.92
-7528.25
-7548.29
-7550.42
-7540.19
-7449.64
-7434.08
-7429.49
-7437.66
-7464.57
-7520.17
-7581.03
-7615.32
-7599.77
-7567.22
-7446.3
-7425.37
-7414.61
-7410.57
-7444.06
-7527.58
-7616.69
-7645.33
-7625.69
-7584.29
-7451.39
-7429.44
-7408.8
-7403.9
-7448.96
-7528.78
-7608.88
-7623.02
-7613.76
-7583.42
-7471.43
-7452.22
-7435.83
-7445.33
-7486.01
-7540.26
-7586.74
-7591.74
-7587.26
-7574.15
-7500.4
-7501.32
-7511.45
-7525.27
-7544.3
-7569.53
-7583.02
-7574.39
-7568.37
-7572.27
-7524.12
-7555.73
-7600.84
-7612.69
-7604.37
-7595.89
-7579.77
-7569.24
-7566.37
-7579.82
-7531.12
-7585.57
-7639.94
-7641.66
-7627.19
-7603.89
-7581.78
-7570.72
-7575.81
-7591.07
-7518.29
-7570.72
-7629.14
-7640.6
-7621.97
-7595.73
-7577.74
-7576.34
-7586.62
-7602.14
-7510.8
-7545.01
-7578.47
-7590.05
-7585.15
-7578.86
-7581.1
-7589.59
-7601.06
-7613.62
-7135.88
-7120.19
-7106.31
-7099.36
-7104.34
-7111.86
-7113.55
-7095.88
-7055.92
-7043.07
-7122.35
-7103.53
-7088.47
-7082.53
-7080.6
-7097.44
-7112.18
-7113.84
-7078.47
-7051.17
-7109.01
-7089.9
-7073.06
-7063.09
-7050.49
-7066.97
-7117.76
-7141.31
-7107.23
-7063.26
-7101.54
-7084.88
-7065.75
-7036.47
-7033.02
-7054.32
-7109.23
-7123.56
-7097.11
-7062.65
-7110.21
-7089.43
-7057.22
-7034.42
-7033.79
-7051.49
-7083.94
-7085.25
-7067.56
-7056.98
-7123.11
-7106.22
-7069.71
-7055.6
-7055.25
-7065.52
-7070.03
-7058.06
-7049.52
-7059.01
-7119.54
-7107.63
-7108.85
-7109.48
-7097.06
-7082.85
-7061.87
-7048.77
-7049.34
-7069.38
-7083.02
-7089.24
-7129.86
-7133.96
-7113.66
-7086.68
-7060.82
-7050.54
-7061.27
-7084.44
-7051.44
-7058.17
-7096.43
-7107.12
-7087.95
-7068.09
-7056.47
-7059.02
-7076.6
-7100.83
-7046.94
-7037.15
-7040.37
-7045.91
-7048.17
-7053.99
-7064.71
-7079.68
-7097.8
-7117.27
-6594.08
-6589.02
-6579.55
-6572.23
-6585.68
-6600.15
-6587.35
-6543.45
-6515.19
-6519.89
-6588.91
-6582.62
-6572.91
-6565.86
-6575.3
-6585.53
-6579.42
-6555.79
-6526.93
-6522.48
-6581.74
-6576.25
-6565.19
-6556.97
-6548.28
-6553.24
-6579.82
-6598.62
-6563.02
-6532.36
-6580.16
-6576.4
-6565.08
-6548.6
-6531.84
-6538.66
-6580.76
-6598.32
-6567.08
-6535.33
-6597.1
-6592.88
-6567.92
-6542.15
-6531.61
-6536.34
-6562.55
-6564.47
-6544.23
-6532.89
-6615.61
-6606.43
-6572.15
-6549.53
-6542.47
-6546.26
-6547.52
-6535.69
-6529.64
-6535.84
-6603.75
-6594.51
-6587.32
-6585.89
-6575.79
-6562.67
-6539.93
-6525.22
-6527.74
-6543.02
-6567.94
-6567.21
-6600.33
-6610.25
-6590.86
-6565.81
-6539.87
-6527.95
-6536.63
-6554.71
-6542.5
-6532.61
-6550.47
-6564.54
-6554.87
-6542.68
-6536.13
-6535.79
-6549.45
-6567.75
-6532.93
-6516.48
-6515.02
-6519.74
-6525.94
-6534.39
-6542.47
-6552.73
-6564.73
-6577.38
-6050.54
-6063.25
-6071.44
-6080.37
-6099.49
-6108.94
-6085.94
-6057.25
-6063.29
-6071.58
-6063.31
-6078.61
-6085.77
-6091.47
-6108.24
-6112.73
-6091.71
-6073.64
-6070.3
-6067.74
-6076.08
-6091.39
-6094.27
-6093.31
-6095.86
-6093.08
-6100.72
-6121.53
-6097.1
-6074.06
-6093
-6106.51
-6104.62
-6095.41
-6078.19
-6079.79
-6114.73
-6140.21
-6110.78
-6078.94
-6116.69
-6130.57
-6117.7
-6092.51
-6078.56
-6081.2
-6107.05
-6115.27
-6095.2
-6077.53
-6124.17
-6136.8
-6117.54
-6094.85
-6087.64
-6091.72
-6095.3
-6087.67
-6080.89
-6075.88
-6096.55
-6105.49
-6110.02
-6117.69
-6116.15
-6109.75
-6089.7
-6075.33
-6075.2
-6075.76
-6066.98
-6072.42
-6114.64
-6140.75
-6132.19
-6114.4
-6089.69
-6074.06
-6073.85
-6076.66
-6059.31
-6045.84
-6062.51
-6084.9
-6088.42
-6085.13
-6081.03
-6074.15
-6074.94
-6076.24
-6051.61
-6041.42
-6046.24
-6057.36
-6065.04
-6071.6
-6074.51
-6074.61
-6072.42
-6068.89
-5629.48
-5640.91
-5649.85
-5656.77
-5667.23
-5668.23
-5661.76
-5667.07
-5682.61
-5684.34
-5639.63
-5653.89
-5661.68
-5667.32
-5683.62
-5691.94
-5683.97
-5683.24
-5678.22
-5675.03
-5653.12
-5668.11
-5675.52
-5676.83
-5684.87
-5686.35
-5689.94
-5712.53
-5696.54
-5681.64
-5667.29
-5683.07
-5689.47
-5685.25
-5672
-5675.77
-5709.66
-5744.09
-5718.01
-5688.87
-5684.28
-5708.78
-5709.02
-5689.47
-5675.77
-5683.8
-5714.02
-5731.31
-5709.35
-5685.13
-5681.48
-5714.46
-5711.22
-5695.4
-5691.48
-5700.19
-5710.18
-5708.82
-5696.3
-5681.1
-5665.15
-5690.84
-5699.27
-5715.06
-5721.22
-5722.43
-5708.67
-5696.28
-5690.94
-5681.28
-5660.44
-5670.35
-5703.4
-5737.96
-5740.95
-5732.38
-5710.39
-5692.88
-5684.88
-5676.77
-5660.26
-5657.95
-5673.26
-5693.09
-5700.71
-5703.99
-5700.41
-5689.35
-5680.09
-5668.97
-5655.52
-5655.25
-5666.22
-5675.34
-5678.41
-5682.88
-5685.49
-5680.73
-5669.16
-5652.28
-5351.45
-5354.55
-5359.26
-5365.66
-5375.09
-5384.65
-5395.34
-5411.74
-5412.34
-5401.98
-5351.32
-5354.61
-5357.38
-5361.78
-5375.58
-5391.59
-5402.68
-5409.5
-5403.03
-5400.74
-5352.58
-5355.15
-5360.2
-5363.96
-5374.49
-5381.93
-5390.16
-5409.57
-5409.21
-5404.25
-5351.64
-5355.75
-5365.4
-5369.78
-5363.84
-5366.02
-5395.47
-5428.92
-5416.66
-5400.96
-5356.96
-5370.57
-5380.66
-5373.79
-5361.07
-5368.02
-5396.75
-5418.64
-5401.47
-5386.58
-5361.91
-5380.96
-5385.2
-5375.28
-5370.72
-5379.17
-5392.3
-5396.59
-5385.25
-5377.86
-5362.67
-5375.17
-5376.16
-5386.61
-5393.05
-5397.99
-5391.3
-5383.03
-5377.95
-5371.86
-5365.62
-5365.81
-5375.03
-5398.22
-5407.85
-5408.08
-5392.88
-5377.09
-5369.23
-5361.21
-5358.55
-5360.81
-5366.02
-5372.08
-5380.69
-5388.09
-5385.51
-5373.31
-5363.08
-5352.51
-5343.11
-5343.99
-5346.44
-5346.95
-5352.78
-5366.2
-5374.73
-5370.09
-5357.66
-5340.28
-5066.67
-5060.66
-5061.48
-5075.22
-5096.7
-5114.81
-5123.55
-5121.7
-5104.54
-5077.66
-5058.88
-5052.8
-5054.03
-5074.56
-5103.19
-5123.44
-5125.19
-5113.21
-5104.21
-5090.96
-5049.78
-5041.86
-5044.67
-5065.47
-5093.59
-5104.46
-5099.46
-5097.82
-5096.31
-5084.43
-5042.34
-5032.67
-5039.16
-5055.93
-5069.53
-5071.7
-5080.93
-5090.61
-5077.04
-5057.42
-5040.91
-5032.83
-5042.11
-5048.9
-5048.83
-5052.9
-5066.62
-5076.5
-5052.88
-5034.87
-5048.44
-5049.38
-5050.73
-5047.22
-5044.95
-5048.89
-5055.9
-5058.3
-5044.74
-5034.9
-5052.35
-5055.07
-5049.51
-5052.92
-5056.4
-5058.34
-5052.04
-5046.29
-5043.3
-5031.63
-5049.47
-5050.67
-5047.17
-5052.78
-5060.52
-5060.88
-5047.05
-5035.34
-5033.28
-5021.7
-5040.15
-5041.77
-5037.74
-5040.12
-5048.11
-5049.44
-5038.17
-5026.23
-5023.52
-5013.76
-5031.61
-5021.87
-5016.89
-5020.6
-5032.08
-5043.02
-5042.32
-5030.58
-5020.3
-5007.21
-4741.85
-4727.63
-4723.76
-4737.96
-4759.16
-4767.11
-4754.27
-4729.17
-4688.93
-4640.36
-4733.73
-4720.21
-4721.83
-4759.27
-4798.73
-4803.72
-4765.85
-4722.59
-4685.59
-4638.06
-4721.38
-4706.36
-4708.09
-4749.6
-4791.53
-4787.82
-4742.65
-4698.05
-4655.66
-4609.98
-4714.51
-4696.37
-4695.15
-4723.1
-4753.2
-4743.5
-4711.1
-4674.93
-4625.45
-4576.35
-4716.14
-4695.92
-4690.41
-4700.44
-4711.29
-4703.72
-4687.34
-4668.9
-4620.52
-4576.44
-4724.09
-4710.41
-4698.8
-4695.29
-4693.42
-4685.83
-4676.52
-4668.39
-4647.47
-4614.84
-4721.5
-4714.07
-4702.6
-4699.74
-4695.62
-4686.3
-4672.83
-4666.8
-4666.27
-4643.48
-4713.37
-4709.37
-4702.14
-4696.23
-4690.97
-4678.42
-4661.27
-4656.16
-4659.96
-4647.85
-4705.47
-4698.24
-4692.28
-4692.99
-4687.1
-4665.8
-4644.29
-4642.47
-4648.5
-4643.18
-4708.26
-4693.31
-4684.94
-4685.69
-4687.08
-4678.18
-4660.68
-4647.95
-4646.96
-4641.87
-4374.5
-4359.02
-4353.71
-4356.95
-4364.16
-4361.68
-4345.16
-4322.32
-4290.21
-4251.22
-4363.42
-4350.48
-4357.43
-4403.38
-4443.49
-4429.06
-4372.03
-4329.09
-4287.83
-4237.04
-4359.47
-4343.53
-4349.73
-4409.54
-4458.47
-4438.92
-4372.74
-4319.44
-4271.3
-4218.58
-4373.17
-4356.25
-4346.39
-4382.08
-4421.17
-4401.9
-4348.87
-4304.69
-4261.4
-4215.88
-4398.17
-4384.82
-4356.46
-4356.83
-4372.72
-4357.23
-4326.91
-4304.54
-4270.15
-4241.29
-4404.66
-4391.3
-4363.13
-4349.42
-4347.22
-4332.69
-4315.56
-4304.74
-4289.65
-4279.3
-4385.89
-4373.02
-4358.32
-4349.54
-4341.25
-4326.22
-4309.04
-4301.92
-4301.79
-4301.52
-4366.34
-4355.73
-4348.84
-4339.68
-4329.31
-4312.7
-4295.42
-4290.93
-4296.15
-4300.46
-4356.75
-4343.61
-4334.28
-4331.85
-4319.11
-4292.07
-4279.23
-4284
-4285.83
-4289.17
-4348.95
-4343.26
-4334.32
-4333.82
-4332.92
-4317.45
-4297.25
-4291.02
-4288.42
-4284.8
-4076.35
-4068.64
-4064.27
-4055.79
-4045.64
-4038.72
-4029.41
-4020.06
-4012.48
-4001.45
-4063.48
-4051.8
-4060.65
-4100.98
-4124.88
-4103.89
-4061.71
-4036.25
-4014.79
-3995.36
-4066.76
-4050.61
-4056.69
-4123.93
-4173.53
-4144.61
-4074.33
-4026.23
-4001.99
-3987.01
-4095.42
-4094.46
-4076.22
-4111.62
-4147.63
-4110.68
-4041.06
-3992.81
-3967.75
-3975.47
-4129.15
-4149.82
-4112.49
-4099.15
-4104.25
-4064.14
-4008.5
-3959.71
-3928.01
-3967.18
-4126.65
-4152.09
-4118.12
-4088.68
-4070.85
-4033.93
-3990.01
-3941.72
-3914.81
-3963.23
-4098
-4108.6
-4092.2
-4075.54
-4056.61
-4024.94
-3986.85
-3953.75
-3937.03
-3969.84
-4074.77
-4073.74
-4069.26
-4060.86
-4048.8
-4021.09
-3982.37
-3960.01
-3952.03
-3966.81
-4063.58
-4057.94
-4052.52
-4051.85
-4046.93
-4023.55
-3994.92
-3972.9
-3959.59
-3960.5
-4049.21
-4058.46
-4059.54
-4065.11
-4065.51
-4044.8
-4010.28
-3986.44
-3973.67
-3960.88
-3789.82
-3792.23
-3795.3
-3780.13
-3751.24
-3725.36
-3701.18
-3680.14
-3672.84
-3685.22
-3785.01
-3770.57
-3780.04
-3803.94
-3800.89
-3768.69
-3721.89
-3675.27
-3649.66
-3663.55
-3794.34
-3777
-3778.33
-3837.82
-3873.11
-3832.09
-3744.91
-3663.76
-3628.98
-3651.97
-3814.64
-3840.26
-3819.32
-3848.6
-3870.98
-3807.71
-3712.77
-3632.05
-3598.98
-3639.94
-3829.95
-3903.68
-3866.84
-3852.58
-3842.31
-3772.55
-3687.93
-3604.68
-3579.54
-3632.43
-3826.11
-3902.17
-3870.04
-3839.69
-3807.43
-3749.9
-3681.89
-3610.41
-3599.82
-3643.04
-3813.41
-3851.92
-3834.63
-3815.26
-3789.43
-3748.21
-3700.15
-3663.14
-3654.59
-3669.22
-3797.58
-3812.31
-3808.57
-3796.99
-3783.84
-3751.74
-3701.22
-3680.43
-3681.63
-3684.3
-3784.5
-3786.81
-3784.31
-3786.66
-3801.79
-3785.79
-3745.59
-3704.12
-3698.49
-3694.1
-3774.5
-3784.61
-3789.45
-3800.59
-3810.86
-3797.77
-3756.68
-3724.07
-3712.32
-3695.34
-3562.47
-3572.43
-3587.43
-3575.79
-3543.04
-3507.06
-3476.24
-3458.82
-3463.53
-3480.76
-3565.01
-3549.14
-3563.41
-3581.81
-3565.68
-3528.47
-3482.36
-3444.76
-3438.88
-3457.07
-3579.88
-3561.21
-3558.71
-3605.73
-3627.71
-3589.2
-3513.49
-3444.25
-3426.93
-3447.29
-3597.53
-3617.46
-3596.02
-3620.8
-3631.05
-3565.91
-3486.58
-3425.11
-3418.24
-3440.88
-3607.91
-3664.15
-3637.09
-3631.75
-3609.77
-3534.66
-3456.14
-3395.93
-3409.31
-3437.62
-3608.79
-3659.72
-3639.6
-3613.19
-3571.33
-3508.35
-3441.17
-3395.19
-3422.14
-3446.37
-3600.11
-3623.92
-3610.02
-3581.63
-3546.71
-3499.53
-3451.39
-3431.12
-3446.88
-3459.62
-3582.7
-3594.6
-3589.5
-3564.34
-3537.1
-3496.58
-3448.38
-3442.95
-3462.61
-3471.57
-3560.5
-3564.25
-3558.47
-3560.51
-3567.22
-3541.93
-3497.19
-3472.11
-3485.85
-3486.76
-3546.08
-3550.65
-3550.06
-3551.01
-3556.53
-3537.83
-3504.36
-3496.28
-3500.13
-3492.71
-3399.57
-3413.01
-3434.48
-3431.73
-3412.24
-3387.96
-3362.99
-3347.09
-3342.6
-3338.93
-3403.8
-3390.19
-3402.25
-3424.28
-3419.71
-3395.62
-3363.16
-3339.72
-3341.57
-3337.29
-3418.53
-3402.86
-3394.55
-3425.99
-3441.38
-3414
-3365.29
-3334.86
-3337.35
-3329.04
-3430.78
-3439.28
-3415.02
-3428.56
-3427.42
-3378.74
-3332.61
-3309.41
-3317.58
-3309.86
-3430.74
-3457.79
-3437.21
-3430.42
-3399.77
-3337.06
-3277.43
-3247.91
-3275.14
-3278.29
-3413.26
-3438.41
-3427
-3396.74
-3352.81
-3295.5
-3232.65
-3196.63
-3227.25
-3255.1
-3383.52
-3398.32
-3387.08
-3350.92
-3317.02
-3272.29
-3222.47
-3189.76
-3211.25
-3249.5
-3349.98
-3351.27
-3340.05
-3320.01
-3305.83
-3273.04
-3235.93
-3220.43
-3230.79
-3256.19
-3316.94
-3313.13
-3305.52
-3321.5
-3337.17
-3317.64
-3269.12
-3255.72
-3266.73
-3271.95
-3298.54