/*--------------------------------*- C++ -*----------------------------------*\
| =========                 |                                                 |
| \\      /  F ield         | OpenFOAM: The Open Source CFD Toolbox           |
|  \\    /   O peration     | Version:  2406                                  |
|   \\  /    A nd           | Website:  www.openfoam.com                      |
|    \\/     M anipulation  |                                                 |
\*---------------------------------------------------------------------------*/
FoamFile
{
    version     2.0;
    format      ascii;
    arch        "LSB;label=32;scalar=64";
    class       surfaceScalarField;
    location    "0.1";
    object      phi;
}
// * * * * * * * * * * * * * * * * * * * * * * * * * * * * * * * * * * * * * //

dimensions      [0 3 -1 0 0 0 0];

oriented        oriented;

internalField   nonuniform List<scalar> 
73500
(
-8.66426e-05
-8.77607e-05
-0.000272603
0.000164946
0.000147301
2.6412e-05
-0.000176025
-0.000272239
0.000208411
5.63363e-05
-0.000181026
-0.000170319
0.000180081
-1.75907e-05
-0.000139564
-7.18009e-05
0.000140996
-0.000130896
-0.000101749
-4.48468e-05
0.000128524
-0.000216028
-9.72277e-05
-8.30959e-05
0.000140557
-0.000212399
-0.000106662
-0.000164528
0.000141516
-0.000106855
-0.000117173
-0.000267685
0.000152821
5.90757e-05
-0.000122623
-0.000319996
0.0001563
-7.38638e-05
-0.00026819
0.000213932
0.000104069
-0.000172944
-9.31611e-06
-0.000239992
0.00021787
-8.18078e-05
-0.0001039
-0.00026085
-4.88768e-05
-0.000141123
-0.00017615
-8.68112e-05
-0.000122969
-8.22605e-05
-0.000140294
-8.71895e-05
-6.10575e-05
-0.000172467
-6.89168e-05
-9.3241e-05
-0.000147201
-6.96829e-05
-0.000165699
-4.10046e-05
-6.10696e-05
-0.000271035
0.000120435
-5.12629e-05
-0.000325428
-1.27951e-05
-0.000257258
0.000263198
-0.000173749
-2.65663e-05
-0.000115332
0.000188959
-0.000118876
-0.000120394
-0.000132753
-9.35951e-05
-0.000155502
-0.000105612
-9.90652e-05
-0.000150495
-6.97196e-05
-0.000103701
-0.00011923
-6.88807e-05
-0.000101048
-9.56156e-05
-7.85267e-05
-7.19605e-05
-8.93351e-05
-0.000122454
1.3191e-05
-6.39495e-05
-0.000198939
0.000146675
-3.45631e-05
-0.000243721
-1.98799e-06
-0.000187173
0.000267997
-0.000129012
-0.000123832
-3.65863e-05
0.000149336
-9.00921e-05
-0.000190174
-5.38218e-05
-8.39469e-05
-0.000197297
-5.84821e-05
-8.28962e-05
-0.000177005
-7.62869e-05
-6.29154e-05
-0.000149618
-9.69966e-05
-4.74613e-05
-0.000134572
-8.5751e-05
-2.61389e-05
-0.000128822
-9.40866e-05
2.40545e-05
-0.000104323
-0.000124252
0.00011861
-6.32535e-05
-0.00016582
-2.13616e-05
-0.000147356
0.00022765
-9.1281e-05
-0.000246794
-3.31652e-05
0.000143378
-4.35107e-05
-0.000273637
-4.3253e-05
-4.30499e-05
-0.000235913
-5.10841e-05
-5.30131e-05
-0.000188774
-8.15493e-05
-3.45436e-05
-0.000151415
-0.000127757
-1.33269e-05
-0.000128345
-0.000137483
-2.32811e-06
-0.000123682
-0.000128448
2.79287e-05
-0.000116904
-0.000129396
9.94031e-05
-9.9047e-05
-0.000133794
-6.51565e-05
-0.000116939
0.000199695
-8.28789e-05
-0.000323964
-9.53591e-05
0.000163613
-1.36487e-05
-0.000314902
-9.87679e-05
-8.24374e-06
-0.000250626
-7.73296e-05
-2.58542e-05
-0.000189435
-8.2433e-05
-1.7835e-05
-0.000147726
-0.000122962
3.78995e-06
-0.000113031
-0.000146769
6.25454e-06
-0.000104839
-0.000127814
2.94783e-05
-0.000119227
-0.00012607
9.0989e-05
-0.000134892
-0.000123377
-0.000118888
-0.000101062
0.000188454
-9.66024e-05
-0.000300151
-0.000196745
0.000181515
-3.77645e-06
-0.000275278
-0.000205617
2.06281e-05
-0.000212277
-0.000148824
2.95469e-06
-0.000163801
-0.000109677
-2.8221e-06
-0.000131286
-0.000114939
4.08333e-06
-0.000102742
-0.00011821
-7.96774e-07
-9.08734e-05
-0.000110149
3.10054e-05
-9.69735e-05
-0.000152271
0.000100963
-0.000112447
-0.000177422
-0.000115755
-0.000142908
0.000188696
-0.00011087
-0.000175345
-0.000301627
0.000203816
9.98376e-06
-0.000136658
-0.000331626
6.2411e-05
-9.7417e-05
-0.000253136
4.66415e-05
-7.8294e-05
-0.000161145
2.00078e-05
-7.16165e-05
-0.0001248
-3.65644e-06
-5.56166e-05
-0.000116431
-1.43621e-05
-2.84191e-05
-0.00014016
3.44623e-05
-7.05739e-06
-0.000223792
0.000125135
-1.31665e-05
-0.000266626
-4.3673e-05
-0.000210152
0.000221178
-0.000118198
-7.76853e-06
-0.000339693
0.000204309
1.65702e-05
3.97656e-05
-0.000377308
9.3801e-05
6.4743e-05
-0.00030553
8.94351e-05
5.27389e-05
-0.000197074
4.8159e-05
3.55056e-05
-0.000139369
-2.65149e-06
4.20983e-05
-0.000118043
-2.81284e-05
7.39856e-05
-0.000151108
2.178e-05
0.000119006
-0.000245857
0.000117321
0.00012453
-0.000292294
6.41824e-05
-0.000250791
0.000227785
-5.36807e-05
-0.000287262
0.000137962
0.000133091
6.80836e-05
-0.000298232
0.000180271
0.000125473
-0.000230005
0.000202502
0.000113821
-0.000151737
0.000179036
7.00506e-05
-0.000118303
0.000159501
4.88045e-06
-9.75203e-05
0.000163262
-2.90418e-05
-0.000118835
0.000185342
-9.89781e-06
-0.000169885
0.000232569
5.39653e-05
-0.000227873
0.00025641
-0.000234318
0.000158285
0.0001805
-0.000107918
-0.000114541
-0.000500028
0.000153926
0.000155252
7.02124e-05
-0.000191724
-0.000589277
0.000197201
0.000209228
-0.000163337
-0.000483953
0.000196607
0.000151401
-6.59747e-05
-0.000259837
0.000167032
-3.21624e-05
3.34219e-05
-0.00014755
0.000102908
-0.000183055
4.36461e-05
-0.000177114
5.8899e-05
-0.00020649
-3.41372e-05
-0.000272974
2.99506e-05
-0.000118343
-0.000122291
-0.000405813
5.09828e-05
-3.66896e-05
-0.000123655
-0.000453321
5.88146e-05
-9.28315e-06
-0.000363982
-1.46047e-05
-1.41051e-05
-0.000183703
2.37423e-05
-0.00051168
0.000193119
-4.64217e-05
-8.07443e-05
-0.000627447
8.87781e-05
-8.20503e-05
-0.000525176
6.00823e-05
1.1248e-05
-0.000274105
-2.85084e-05
0.000109181
-0.000178319
-0.000101123
0.000112207
-0.000205313
-0.000129794
-4.25827e-06
-0.000281198
-9.16591e-05
-0.000130478
-0.000407781
-3.88969e-05
-0.00014585
-0.000455183
-1.2157e-05
-0.000339207
-4.24168e-05
-0.000170239
3.55726e-05
-0.000316321
0.00022887
-5.41145e-05
-3.98664e-05
-0.000417372
3.14304e-05
-4.88349e-05
-0.000364397
2.11883e-05
1.30987e-05
-0.000208608
-6.19326e-06
0.000118585
-0.000179521
-4.3466e-05
0.000132043
-0.000178389
-6.98577e-05
-6.38867e-06
-0.000217419
-4.31859e-05
-0.000154907
-0.000326
-1.11376e-05
-0.000193992
-0.000347462
-0.000120738
-0.000210811
1.92823e-05
-0.000116626
-6.99999e-05
-0.000162207
0.000223435
1.08943e-05
-0.000116755
-0.000224081
8.02795e-05
-0.000112171
-0.000202126
8.88396e-05
-3.21501e-05
-0.000179289
9.89509e-05
8.6008e-05
-0.000202775
9.54391e-05
8.38291e-05
-0.00016024
9.96974e-05
-9.46674e-05
-0.000150446
0.000131985
-0.000272834
-0.000182796
0.000181487
-0.000318164
-0.000212111
-0.000272347
-0.000119485
0.000213597
-3.54789e-05
-0.000237741
-0.000126925
0.000172395
9.39815e-05
-0.000226657
-0.000175608
0.000170281
-0.000184826
-0.000173916
0.000186968
-7.41016e-05
-0.00018314
0.000188986
4.92535e-05
-0.000214238
0.000191884
3.53317e-05
-0.000210544
0.000204176
-0.000157807
-0.000203773
0.000250818
-0.000340962
-0.000219344
0.000329968
-0.000413681
-0.000212042
-0.000377499
-9.46975e-05
0.000336028
-5.01783e-05
-0.000325672
-0.000207444
0.000131697
6.07249e-05
-0.000294714
-0.000243901
0.000141511
-0.000251724
-0.000202013
0.000148923
-0.000114305
-0.000171611
0.000109471
3.33726e-05
-0.000196276
8.19052e-05
2.41222e-05
-0.000240018
8.92092e-05
-0.000157023
-0.000265269
0.000175974
-0.000331544
-0.000328173
0.000303328
-0.000428487
-0.000326389
-0.000430424
-0.000156654
0.000340802
-0.000116
-0.000294672
-0.000329245
9.66568e-05
-4.30852e-05
-0.000277066
-0.000398368
3.09303e-05
-0.000259641
-0.000324709
8.15596e-06
-0.000105093
-0.000227763
-8.06772e-05
6.92327e-05
-0.00019816
-0.00012936
6.49599e-05
-0.000244732
-9.18343e-05
-8.30121e-05
-0.000351241
4.78847e-05
-0.000216279
-0.000512895
0.000203568
-0.000307848
-0.000541994
-0.000375301
-0.000327612
0.000258251
-0.00014732
-0.000184029
-0.000468544
9.4847e-05
-0.000102751
-0.000184615
-0.000558441
-4.64629e-05
-0.000176336
-0.000498417
-8.95842e-05
-1.44924e-05
-0.000336691
-0.000193906
0.00016508
-0.000237794
-0.000247763
0.000180083
-0.000291647
-0.000190409
7.97368e-05
-0.000467303
-3.54969e-05
-2.15187e-05
-0.000667584
0.000104213
-0.000119457
-0.000683585
-0.000226066
-0.000474031
0.000145506
-0.000108589
-0.000105591
-0.000499238
8.97738e-05
-6.659e-05
-0.000100026
-0.000585339
-3.64131e-05
-7.83402e-05
-0.000529428
-0.00010473
8.21071e-05
-0.000343395
-0.000206709
0.000267602
-0.000243844
-0.000272501
0.000309651
-0.000274265
-0.000239143
0.0002342
-0.000432938
-0.000115399
0.000138683
-0.000621128
3.76422e-07
4.43536e-05
-0.000650213
-7.56389e-05
-0.00050176
3.58767e-05
-6.83085e-06
-0.000425013
-7.76307e-05
3.32461e-05
6.33942e-05
-0.000462179
-7.51498e-05
6.76182e-05
-0.000356608
-4.1074e-05
-4.08304e-05
-0.000179045
0.000123312
-0.000144247
-0.00011064
0.000283594
-0.000232106
-0.000105847
0.000330892
-0.000276562
-0.00017936
0.000261104
-0.000236911
-0.000309032
0.000160183
-0.000126638
-0.000425164
6.4615e-05
-0.000405333
-5.69067e-05
-2.20813e-05
-0.000332242
-0.00054023
-0.000571054
0.000333902
0.000479242
-0.000237154
-0.000518432
-0.000738815
0.000453265
-6.28635e-05
-0.000495593
-0.00076583
0.000456367
7.93168e-05
-0.000432548
-0.000569617
0.000439833
0.00013167
-0.00038732
-0.000339527
0.000378372
0.000183172
-0.000444959
-0.000223555
0.000293429
0.000292132
-0.000604015
-0.000229185
0.000319273
0.000276129
-0.000718864
-0.000304934
0.000525862
0.000154099
-0.000646759
-0.000357768
0.000562689
-0.000471917
-0.000329393
2.82977e-05
0.000471271
-0.000361449
-0.000469739
-0.000683751
0.000353872
-0.000253975
-0.000480005
-0.000867081
-0.000105669
-0.00041067
-0.000876147
4.15436e-05
-0.000342395
-0.000647898
7.79069e-05
-0.000332844
-0.000393723
4.25022e-05
-0.000458119
-0.000264164
-1.90643e-05
-0.000685673
-0.000231065
-0.000111387
-0.00080318
-0.000316061
-0.00019694
-0.00070575
-0.000383598
-0.000504623
-0.000329756
-0.000238229
-0.000392718
-0.000299249
-0.000580226
0.000368691
-0.000297516
-0.000314699
-0.00077898
-0.000160014
-0.000263726
-0.000776572
-3.18654e-05
-0.000250737
-0.000568297
-1.45069e-05
-0.000298556
-0.000352034
-9.0935e-05
-0.000446358
-0.000212511
-0.00022502
-0.000672224
-0.000174428
-0.000317941
-0.000801935
-0.000299812
-0.000351302
-0.000721475
-0.000365704
-0.000492097
-0.000255599
-0.000375849
-0.000415647
-0.000173098
-0.000373681
0.000390133
-0.000330923
-0.00019502
-0.000525534
-0.000193876
-0.000214595
-0.000506809
-9.85917e-05
-0.00026156
-0.000388253
-7.92457e-05
-0.00033303
-0.000297923
-9.98718e-05
-0.000488537
-0.000183612
-0.000160863
-0.000672369
-0.000160762
-0.000194797
-0.000771981
-0.000247991
-0.000202083
-0.000713699
-0.000275858
-0.000459459
-0.000154599
-0.000259395
-0.000450682
-0.000110848
-0.00024443
0.000400937
-0.000374337
-0.000172757
-0.000360026
-0.000253569
-0.000264808
-0.000341243
-0.000185781
-0.000324754
-0.000290041
-0.000189295
-0.000396603
-0.000240427
-0.000169221
-0.000582781
-0.000214657
-0.000118216
-0.000735695
-0.00025973
-6.87959e-05
-0.000768274
-0.00033764
-4.20422e-05
-0.00068046
-0.000341543
-0.000429766
-0.000159139
-7.26237e-05
-0.000536819
-5.00185e-06
-0.000227124
0.000344539
-0.000529054
-0.000174763
-0.000327862
-0.000418706
-0.000374527
-0.000281751
-0.000340716
-0.000420838
-0.000234415
-0.000359774
-0.000416058
-0.000234776
-0.000333958
-0.000578689
-0.000336568
-0.000206206
-0.000677859
-0.000514256
-7.18127e-05
-0.00063545
-0.00066139
2.21998e-05
-0.000540244
-0.000629765
-0.000362771
-0.000322786
4.91339e-05
-0.000602823
0.000167812
-0.000277544
0.000265158
-0.000696723
-0.00014901
-0.000403362
-0.000618011
-0.000445246
-0.000400496
-0.000492312
-0.000481425
-0.000361456
-0.000447449
-0.000386723
-0.000341027
-0.000366196
-0.000461971
-0.000507158
-0.000165404
-0.000474936
-0.000817373
9.99785e-06
-0.000380107
-0.00100686
8.9354e-05
-0.000281955
-0.000948473
-0.00017319
-0.000588283
8.28957e-05
-0.000575521
0.000169612
-0.000404836
0.00041537
-0.000659301
-0.000165476
-0.000525259
-0.000631902
-0.000429304
-0.000600999
-0.000523395
-0.00041801
-0.000569833
-0.000422284
-0.000291384
-0.000501404
-0.000289144
-0.000286769
-0.000666416
-7.04274e-05
-0.000252049
-0.000972753
8.79616e-05
-0.000172198
-0.00109915
0.000145083
-7.50781e-05
-0.00102001
3.23571e-05
-0.00073518
0.000127408
-0.000501205
0.000103448
-0.000496431
0.000478205
-0.000533908
-0.000162578
-0.000616667
-0.000520625
-0.000357252
-0.000668226
-0.000438422
-0.000311507
-0.000592492
-0.00032548
-0.000176108
-0.000539499
-0.000183022
-0.000115756
-0.000658063
2.09771e-05
-9.13035e-05
-0.000869355
0.00018467
-5.04458e-05
-0.00098008
0.000260879
5.95987e-05
-0.000930156
0.000182188
-0.000720652
0.000268654
-0.000454933
-0.000478659
6.82843e-05
0.000474591
-0.000427242
-0.000577277
-0.000124244
-0.000373674
-0.000530921
-0.000286797
-0.000253251
-0.00040189
-0.000265738
-0.000138641
-0.000346222
-0.000121203
-3.77192e-05
-0.000386862
-1.03243e-05
0.000127999
-0.000489668
-2.56275e-05
0.000303291
-0.000602781
-5.2955e-06
0.000395935
-0.000650267
0.000127993
-0.000539939
0.000380407
0.000287692
-9.87974e-05
-0.000446403
-0.000571956
9.59836e-05
0.000365881
-0.000201611
-0.00049108
-0.000718124
0.0005045
-0.000244059
-0.000640229
-0.000794049
0.000630961
-9.21782e-05
-0.000727454
-0.000701534
0.000617493
8.69498e-05
-0.000657272
-0.000423752
0.000473745
0.000323466
-0.000601351
-0.000199001
0.000258242
0.000527058
-0.000680422
-0.000142296
0.000318512
0.000536702
-0.00069766
-0.000214903
0.000536068
0.000443871
-0.000592439
-0.000351381
0.000611257
-0.000431074
-0.000411138
0.000339654
0.000559134
-0.000131991
-0.000546931
-0.000771354
0.000254012
-8.19047e-05
-0.000514355
-0.000947
-9.72735e-05
-0.000591208
-0.000964809
-2.66284e-05
-0.000680901
-0.000833717
4.30262e-05
-0.000679535
-0.000515307
0.000108751
-0.000757884
-0.000232673
0.000117887
-0.000882723
-9.2703e-05
-6.71616e-06
-0.000802131
-0.000147312
-0.000104737
-0.000598425
-0.000338346
-0.000431761
-0.000469927
-1.93603e-05
-0.000195719
-0.000441027
-0.000838255
0.000282677
-8.39499e-05
-0.000429066
-0.00102805
-5.04262e-05
-0.000459584
-0.00100582
-1.74781e-05
-0.000531738
-0.000822622
-4.6436e-05
-0.000592756
-0.000480007
-0.000172356
-0.000732412
-0.000171707
-0.000354077
-0.000870302
-5.23908e-05
-0.000509677
-0.000808995
-0.000181844
-0.000535685
-0.000626181
-0.000362416
-0.000452185
-0.000465826
-0.000345593
-0.00020946
-0.000204394
-0.000696121
0.000215082
-0.000120018
-0.000251922
-0.000862177
-7.56253e-05
-0.000282085
-0.000800982
-7.89656e-05
-0.000390608
-0.000600505
-0.000176392
-0.000527315
-0.000328027
-0.000367898
-0.000659499
-0.000108592
-0.000600033
-0.000760706
-7.67792e-05
-0.000740246
-0.000724726
-0.000231942
-0.000744201
-0.000597795
-0.000336448
-0.000444576
-0.000411367
-0.000529438
-0.000259393
7.38971e-05
-0.000500198
0.000158499
-0.000294869
-7.42533e-05
-0.000561573
-0.000282413
-0.000259146
-0.000438018
-0.000237301
-0.000487833
-0.00029243
-0.000244716
-0.000631866
-0.000174105
-0.000332339
-0.000683784
-0.000144822
-0.000472345
-0.000660348
-0.000258903
-0.000588222
-0.000570201
-0.000413474
-0.000650528
-0.000472861
-0.000443683
-0.000363794
-0.000409794
-0.000513298
-0.00023159
0.000324905
-0.00037303
5.72078e-05
-0.000395059
7.36018e-05
-0.000366941
-0.000423605
-0.000300939
-0.000257949
-0.000350432
-0.000654226
-0.000182829
-0.000273319
-0.000795078
-0.000188401
-0.000208267
-0.000758213
-0.00036832
-0.00016576
-0.000563603
-0.000697881
-0.000188652
-0.000374353
-0.000877942
-0.000309639
-0.000203661
-0.000817703
-0.000128484
-0.000605008
-0.000300155
-0.0001842
0.000481436
-0.00035898
4.62764e-05
-0.000342029
0.000124974
-0.000348855
-0.000404933
-0.000349054
-0.00033756
-0.0003642
-0.000720054
-0.00037554
-0.000253733
-0.000854762
-0.000430545
-0.000102359
-0.000728735
-0.000729932
3.58413e-05
-0.000440985
-0.00112071
9.25708e-05
-0.00025604
-0.00122408
2.13825e-05
-8.1324e-06
-0.00111783
0.000138202
-0.000854566
-2.35713e-05
-0.000219906
0.000464878
-0.000468606
0.000247026
-0.000241246
7.86005e-05
-0.000511268
-0.000277862
-0.000353637
-0.000607786
-0.000280602
-0.000645058
-0.000680887
-0.000207917
-0.000734332
-0.000731913
-8.19933e-05
-0.000560642
-0.000997338
4.38303e-05
-0.000329289
-0.00124928
0.000103084
-0.000197708
-0.00125727
0.000142928
3.33078e-05
-0.00114601
0.000260746
-0.000925438
0.000168932
-0.000306733
0.000409194
-0.000587176
0.000407456
-0.000261479
8.87643e-05
-0.000716377
-0.000250584
-0.000252759
-0.000820951
-0.000206208
-0.000471186
-0.000847831
-0.000134396
-0.000529006
-0.000851879
3.18011e-05
-0.000400581
-0.00102235
0.000216321
-0.00025228
-0.00116906
0.000291755
-0.000125142
-0.00116791
0.000331323
7.40997e-05
-0.0010472
0.000310336
-0.00080234
0.000332116
-0.000322017
-0.000565457
0.000332802
0.000446936
-0.000260675
-0.000746978
0.000162382
-0.000223471
-0.000812099
-4.73546e-05
-0.000129634
-0.000809994
-0.000192016
-7.81543e-07
-0.000806285
-0.000234532
0.000218487
-0.000873734
-0.000172004
0.000447607
-0.00094557
-6.6661e-05
0.000566285
-0.000935984
5.28712e-05
0.000574896
-0.000794037
0.000179015
-0.000534982
0.000508937
0.000347522
0.00037942
0.000230713
-0.000669953
-0.000405595
-0.000218938
0.000236034
0.000121368
-0.000723823
-8.43489e-05
-0.00014392
-9.08536e-05
-0.000670028
0.000232848
-0.000366915
-0.000327051
-0.000623244
0.000359806
-0.00014007
-0.00051561
-0.000610931
0.000362226
0.000216378
-0.000429294
-0.000462059
0.000226013
0.000546897
-0.000379408
-0.000438835
0.0002545
0.000750981
-0.000257212
-0.000568216
0.000333243
0.000765005
-9.78297e-05
-0.000675907
0.000336325
8.351e-05
-0.000599782
0.000591204
0.000219466
0.000293087
0.000188524
-0.000922373
-0.000200036
0.000340828
0.000106873
-0.00105997
0.000207119
-3.38695e-05
-0.000971566
6.33069e-05
-0.000241741
-0.000868768
0.000141847
-0.000485915
-0.000719541
0.000317533
-0.000560808
-0.000348366
0.000472738
-0.000568724
-0.000120732
0.000578803
-0.000243944
-0.000334893
0.000616667
0.000142341
-0.000677974
0.00036163
-0.000780844
0.000606788
0.000128877
0.000203397
-0.00110478
2.72291e-05
0.000266405
0.000159072
-0.00128696
0.000306029
1.39982e-05
-0.00117153
0.000303649
-0.000159809
-0.000986146
0.000333829
-0.000362046
-0.000714265
0.000330619
-0.000539534
-0.000252745
0.000318329
-0.000622222
-4.08863e-05
0.000345023
-0.000295674
-0.000220729
0.000450664
0.000233252
-0.000635926
0.0005352
-0.000812389
0.00058238
9.29402e-05
0.000323452
-0.0010978
8.92936e-05
0.000265343
0.000322873
-0.00128495
0.000325441
0.000207422
-0.00114899
0.000364122
2.40469e-05
-0.000919586
0.000332426
-0.000201475
-0.000534251
0.000215481
-0.000423749
-0.000161457
0.000132377
-0.000553972
-0.000111623
0.000127487
-0.000296763
-0.000295494
0.000210517
0.000308947
-0.000579342
0.000617379
-0.000746131
0.000418779
0.000144278
0.000438854
-0.000943097
8.09886e-05
0.000366345
0.000443484
-0.00100812
0.000401371
0.000414905
-0.000797424
0.00032931
0.000227301
-0.000518094
0.000255299
-0.000106778
-0.000257926
0.000199705
-0.000324348
-0.00024092
0.000175539
-0.000421886
-0.000420582
9.49564e-05
-0.00015088
-0.000546342
4.68919e-05
0.000416952
-0.000584897
0.000678469
-0.00068574
0.000217323
5.08219e-05
0.000671216
-0.000782941
4.31235e-05
5.13645e-05
0.000662034
-0.00066336
-2.70574e-05
0.000547502
-0.0003819
-2.43331e-05
0.000220318
-0.000240871
5.46339e-05
-0.000151019
-0.000275624
0.000183446
-0.000275116
-0.000603204
0.000291195
-0.000333822
-0.000950139
0.000250808
-5.55761e-05
-0.000991505
0.000188956
0.000444411
-0.000844188
0.000793375
-0.000785851
0.000216586
5.56318e-05
0.000873801
-0.000709574
2.7653e-05
0.000126643
0.000746115
-0.000565414
9.87393e-05
0.000586194
-0.000417632
2.23955e-05
0.00034748
-0.000493508
-3.45334e-05
4.81869e-05
-0.000630551
4.01276e-06
-0.000103021
-0.000994077
-2.22049e-05
-0.000267866
-0.00120576
-7.70163e-05
-9.98962e-05
-0.00117041
1.17412e-05
0.000260858
-0.00106895
0.000655374
-0.000898022
0.000156877
7.76881e-05
0.000928421
-0.000732466
7.99393e-05
0.000220386
0.000781016
-0.000737337
0.000251027
0.000618655
-0.000727936
0.000203048
0.000456344
-0.000803054
0.000105949
0.00029602
-0.00094029
-1.19977e-05
0.000130375
-0.00116179
-0.000173037
-0.000151176
-0.00124323
-0.000216746
-0.000120121
-0.00123136
-5.26895e-05
1.93821e-05
-0.00111046
0.000325462
-0.000852187
0.000166578
0.000125827
0.000756413
-0.000727778
0.000142245
0.000374027
0.000689141
-0.000905491
0.000472076
0.000637426
-0.00097113
0.000466988
0.000567244
-0.000992143
0.000428162
0.000457704
-0.00101793
0.000306519
0.000324513
-0.00113573
3.32015e-05
0.000120167
-0.00120508
-0.000157892
5.54951e-05
-0.00119168
-0.000154012
-4.1939e-05
-0.00103052
-1.71347e-05
-0.000682726
2.7097e-05
0.000241918
-0.00057996
0.000456187
3.17098e-05
0.000478294
-0.000861934
0.000542828
0.000593065
-0.000971864
0.000657846
0.000648985
-0.000980424
0.00065618
0.00068158
-0.000981122
0.000573314
0.000639811
-0.00100803
0.000472216
0.000412453
-0.00101001
0.000380474
0.00011649
-0.000947497
0.000328701
-0.000167494
-0.000737617
0.000146073
-0.000405624
-0.000227457
-0.000125862
0.000226217
0.000254551
-0.000889685
-0.00015667
-0.000178171
0.000272971
0.000304213
-0.00089928
-0.000251523
0.000158662
0.000346616
-0.000731991
-0.000261408
5.26264e-06
0.000322686
-0.000699186
-0.000199677
-5.83045e-06
0.000255175
-0.000947952
-5.2701e-05
0.000295249
-0.000170674
-0.000907664
0.00021665
0.000720693
-0.000223591
-0.00100106
0.000287322
0.000939574
1.60657e-05
-0.00108086
0.000217842
0.000878433
0.000224427
-0.000992885
0.000100988
0.000404202
-0.000746774
0.000655227
-7.63499e-05
0.000142828
0.000371157
-0.00118674
-5.83908e-05
0.000190687
0.000393231
-0.00125576
0.000118696
0.000437288
-0.00105465
9.07806e-06
0.000394509
-0.000918334
0.000148814
0.000243195
-0.000967312
0.000337339
-0.000284095
-0.000490464
0.000695761
-0.000296507
-0.00046427
0.000950059
0.000269808
-0.000895338
0.000922862
0.000675529
-0.00113223
0.000825516
-0.00101909
0.000715044
4.71049e-05
0.000534052
-0.00136784
-1.7999e-06
9.72681e-05
0.000510399
-0.00150454
0.000146434
0.000444429
-0.00129583
0.000170859
0.000319819
-0.00101599
0.00037048
4.94025e-05
-0.000802542
0.000486381
-0.000446258
-0.000257812
0.000646525
-0.000481582
-6.61408e-05
0.000840755
0.000272372
-0.000473626
0.000905446
0.00094957
-0.00100575
0.00118347
-0.0010697
0.000782224
7.96902e-05
0.000708999
-0.0013783
-2.49611e-05
0.000198256
0.000588665
-0.00153813
0.000322553
0.000411277
-0.00132004
0.000380265
0.000247503
-0.000989095
0.000459661
-6.5205e-05
-0.000563978
0.000506595
-0.00051919
-0.000180526
0.000585027
-0.000571356
-0.000151273
0.000640543
0.000188215
-0.000327824
0.000803357
0.000955198
-0.00078539
0.00138275
-0.000984424
0.000820787
0.000139192
0.000859162
-0.00123052
-5.07878e-05
0.000288374
0.000644468
-0.00127864
0.000271129
0.000480307
-0.000938944
0.000196927
0.000279945
-0.00055077
0.000248104
-0.000147833
-0.000278343
0.0003962
-0.000605694
-0.000347812
0.000568073
-0.00069828
-0.000516745
0.000532342
0.000163016
-0.000549841
0.00060815
0.000905686
-0.000652266
0.001425
-0.000865978
0.000722036
6.52351e-05
0.00104303
-0.0010727
-6.08025e-06
1.78494e-05
0.000898058
-0.000922657
-0.00018064
0.00067434
-0.000430904
-0.000257992
0.000337017
-0.000272068
-0.000206746
-0.000153225
-0.000366612
-6.4283e-05
-0.000678366
-0.000715825
1.91954e-05
-0.000904157
-0.000871142
6.638e-05
-9.49627e-05
-0.000829495
0.0001411
0.000652133
-0.000709632
0.00112522
-0.000799902
0.000429235
0.000126667
0.0011398
-0.000985976
1.1539e-05
0.000153373
0.00109061
-0.000825347
-2.71741e-05
0.000861532
-0.000474777
-0.000203867
0.000536626
-0.000575303
-0.000387919
5.91836e-05
-0.000707539
-0.000555932
-0.000628019
-0.000909889
-0.00073747
-0.000995467
-0.000959806
-0.000689351
-0.000431921
-0.000913587
-0.000431543
0.000134453
-0.000839628
0.000407739
-0.000774075
0.000128726
0.000378769
0.000957597
-0.000926907
-3.85278e-05
0.000679403
0.00101121
-0.000984198
0.000675048
0.000876527
-0.00077324
0.000510191
0.00062189
-0.000770594
0.00022929
0.000284127
-0.000930427
-0.000240884
-0.000391422
-0.000964651
-0.000702
-0.000751612
-0.0010526
-0.000756449
-0.000517928
-0.00111831
-0.000470013
-0.000321013
-0.000975645
-0.000243604
-0.000723475
1.74805e-05
0.000564021
0.000629244
-0.000837848
-0.000160813
0.00102639
0.000704811
-0.0010812
0.00125663
0.000724446
-0.00106977
0.00120069
0.000675636
-0.00101311
0.000939016
0.000466229
-0.000969547
0.000348173
-2.52609e-05
-0.000943868
-0.000379233
-0.000232328
-0.00102919
-0.000714489
-0.000252105
-0.00115296
-0.000632781
-0.000419196
-0.00104247
-0.000581561
-0.000695211
-0.00031253
0.000715186
-0.000666647
0.000367813
-0.000397905
0.00105372
-0.000957989
0.000443429
0.00128762
-0.00104235
0.000543121
0.00132995
-0.000994943
0.000628619
0.00111664
-0.000898002
0.000574414
0.000492357
-0.000835016
0.000396254
-0.000239647
-0.000851908
0.000307733
-0.000687842
-0.000905482
0.000119334
-0.000830625
-0.000825827
-0.000218131
-0.000567433
-0.000707886
-0.000567047
-0.000187295
5.39424e-05
-0.00108468
0.000204651
1.49213e-05
-0.000130641
0.000287605
-0.00116754
-0.000171835
2.57031e-05
0.000552152
-0.00110152
-0.000433302
0.000220165
0.000486726
-0.00112293
-0.000364493
0.000277428
2.12414e-05
-0.00125005
8.7475e-05
0.000432099
-0.00018838
-0.00126011
0.000295034
0.000588428
-0.000219165
-0.00136146
0.000348234
0.000534125
4.61e-05
-0.00133977
0.000204105
0.000438025
0.000308302
-0.0011794
-7.70874e-05
0.000505672
-0.000904195
0.000454637
-0.00040901
-0.000241756
0.000131618
-0.00137003
0.000257472
-0.00021176
0.000393072
-0.00145854
-0.000110698
0.000649491
-0.00132732
4.26583e-05
0.00051949
-0.00121133
0.000193916
-4.80348e-05
-0.00117731
0.00060193
-0.000232168
-0.00093418
0.000936684
1.81389e-05
-0.00109677
0.000763001
0.000626559
-0.00133995
0.000503142
0.000701467
-0.00129901
0.000587857
-0.00103966
0.000412101
-0.000217481
0.000203664
-0.00150485
0.000197356
-0.000228243
0.000462656
-0.00162699
-0.000128619
0.000654191
-0.00148443
0.000111972
0.000251498
-0.00111364
0.000289615
-0.00038589
-0.000742713
0.000696875
-0.00063636
-0.000319388
0.00106657
-0.000147848
-0.00032568
0.00103785
0.00105865
-0.000919805
0.000661966
0.00128475
-0.00124187
0.000810086
-0.00102769
0.000366664
-9.18797e-05
0.000244234
-0.00151736
0.000104558
-7.76032e-05
0.0004689
-0.00162736
5.40792e-05
0.000586425
-0.00149117
0.000142674
-1.79799e-06
-0.000939418
0.000223281
-0.000748185
-0.000348465
0.000513186
-0.00116148
4.62779e-06
0.000717362
-0.00060297
5.0216e-05
0.000774197
0.000922568
-0.000298723
0.000596622
0.00162045
-0.000980982
0.00101802
-0.00094489
0.00031698
-2.64656e-05
0.000316493
-0.0014067
4.55163e-05
-0.000128515
0.000635148
-0.00142568
-0.000246601
0.000709931
-0.00103877
-0.000419174
-3.56842e-07
-0.000447843
-0.00040109
-0.00099179
-9.84291e-05
-6.48242e-05
-0.00171078
-0.000173943
0.000221881
-0.00124166
-0.000216341
0.000164363
0.00052401
-0.000160187
0.000198808
0.00155178
-0.000654504
0.000974282
-0.000816164
0.000154082
3.48307e-05
0.000384689
-0.00128823
3.25259e-05
-4.36753e-05
0.000873191
-0.00114712
-0.0003638
0.00102525
-0.00048456
-0.000853982
0.000299474
-0.00013482
-0.00110642
-0.000917971
-0.000224004
-0.00104321
-0.00192661
-0.000593474
-0.000888959
-0.00170748
-0.000596005
-0.00086647
-8.71792e-05
-0.00028216
-0.000615924
0.000977358
-0.000422664
0.000453916
-0.000661971
-0.000267004
0.000419764
0.000270807
-0.00125219
-9.52611e-05
0.00074432
0.000818977
-0.00113313
0.000513221
0.00115737
-0.00042281
-0.000164382
0.000567245
-0.000218474
-0.000804053
-0.000580506
-0.00044285
-0.00124505
-0.00175962
-0.000661848
-0.00151038
-0.00176741
-0.000659408
-0.00144839
-0.000606978
-0.000488263
-0.00111851
0.000181797
-0.000406809
-0.000316542
-0.000590728
-0.000567168
0.000678454
0.000104496
-0.00120648
-0.000276228
0.00138904
0.000397251
-0.00129868
0.00179831
0.000736853
-0.000789925
0.00149366
0.000428295
-0.000364649
0.000787093
-0.000440117
-0.000401228
-0.000111652
-0.00137121
-0.000484517
-0.00088966
-0.00137778
-0.000690057
-0.00102354
-0.00079113
-0.00082985
-0.000919817
-0.000339361
-0.000595415
-0.000738432
-0.000615274
-0.000638703
0.000755462
4.75283e-05
-0.00109278
-0.000479953
0.00120103
8.86741e-05
-0.00123679
0.00176557
0.000231581
-0.00115173
0.00193362
7.5758e-05
-0.000851686
0.00153142
-0.000414308
-0.000620818
0.000592339
-0.000915823
-0.00048631
-0.000375134
-0.000875641
-0.000596081
-0.000806677
-0.000660834
-0.000881914
-0.000849682
-0.000540523
-0.000827678
-0.000838799
-0.000713295
-0.000760168
0.000816147
-0.00089834
0.000141362
-0.000706408
0.00082795
-0.00100299
9.99211e-05
0.000905413
-0.000988485
7.63253e-05
0.00087873
-0.000882731
-3.69986e-05
0.000514618
-0.000721202
-0.000253942
-0.000180151
-0.000618886
-0.000469465
-0.000758972
-0.000656118
-0.000524401
-0.00100199
-0.000793037
-0.000559249
-0.000939672
-0.000849312
-0.000608203
-0.000709729
-0.000853084
-0.000808061
-0.000217608
-7.50857e-05
-0.00137082
0.000302467
0.000237501
-0.000114311
-0.000147753
-0.0015477
0.000383881
2.37424e-05
-0.000191563
-0.00152347
0.000424949
0.000149447
-0.000251442
-0.00153083
0.000480604
3.482e-05
-0.000238078
-0.00147524
0.000525461
-0.000129738
-0.000257927
-0.00140583
0.000521391
-0.000289178
-0.000282757
-0.00138333
0.000420949
-0.000395135
-0.000191311
-0.00134479
0.000260052
-0.000293946
-0.000134285
-0.00122676
4.57333e-05
-0.000183708
-0.000911471
4.71617e-05
-0.00018575
-0.000231295
4.45133e-05
-0.00161833
0.000324331
-0.000162601
1.8196e-05
-0.00172788
-0.000102472
3.67404e-05
-0.00166033
-5.00002e-05
1.95992e-05
-0.00158178
-9.98363e-05
7.60735e-05
-0.00149193
-2.98801e-05
4.78211e-05
-0.00135692
-0.000271458
0.000147188
-0.00132171
-0.000609495
6.25954e-05
-0.00128442
-0.00053949
-0.000357512
-0.00117727
-0.000676426
-0.000924059
-0.000192204
-0.000133261
2.97427e-05
-0.00163333
0.000237635
-0.000101486
2.86434e-05
-0.0017092
-0.000158084
0.00026337
-0.00169899
-0.000124694
0.000342056
-0.00151675
4.80768e-05
0.000301533
-0.00118539