/*--------------------------------*- C++ -*----------------------------------*\
| =========                 |                                                 |
| \\      /  F ield         | OpenFOAM: The Open Source CFD Toolbox           |
|  \\    /   O peration     | Version:  2406                                  |
|   \\  /    A nd           | Website:  www.openfoam.com                      |
|    \\/     M anipulation  |                                                 |
\*---------------------------------------------------------------------------*/
FoamFile
{
    version     2.0;
    format      ascii;
    arch        "LSB;label=32;scalar=64";
    class       volSymmTensorField;
    location    "0.1";
    object      turbulenceProperties:devReff;
}
// * * * * * * * * * * * * * * * * * * * * * * * * * * * * * * * * * * * * * //

dimensions      [0 2 -2 0 0 0 0];

internalField   nonuniform List<symmTensor> 
25000
(
(-0.63867 0.0452349 -0.292698 -0.533866 -0.344854 1.17254)
(-0.473355 0.15111 -0.608294 -0.527828 -0.0903162 1.00118)
(-0.154589 0.111697 -0.264062 -0.431949 0.137546 0.586538)
(-0.0735381 0.134053 0.118856 -0.226949 0.118783 0.300487)
(-0.24102 0.0896664 0.127097 -0.175271 -0.0442856 0.416291)
(-0.288621 0.0414501 0.241731 -0.302098 -0.0118071 0.590719)
(-0.315509 0.0403898 0.65348 -0.436481 0.0669523 0.75199)
(-0.576997 0.0677145 0.835284 -0.499128 0.1956 1.07613)
(-0.849118 -0.0100516 0.324262 -0.454876 0.343001 1.30399)
(-0.827088 -0.0171879 -0.51139 -0.352407 0.337601 1.17949)
(-0.577974 0.179676 -0.0785467 -0.342464 -0.67209 0.920438)
(-0.485395 0.252524 -0.143422 -0.406219 -0.229652 0.891614)
(-0.343813 0.113468 -0.0107278 -0.261826 0.15442 0.605638)
(-0.329451 -0.0670771 0.0933643 -0.0575231 0.147989 0.386974)
(-0.480084 -0.147485 0.0455941 0.0372143 0.0288357 0.44287)
(-0.471113 -0.112885 0.157678 -0.0552726 -0.0332347 0.526386)
(-0.436273 -0.067176 0.568185 -0.218112 -0.151191 0.654385)
(-0.651577 -0.00938625 0.833798 -0.353692 -0.342818 1.00527)
(-0.863804 -0.00949943 0.365617 -0.413752 -0.422576 1.27756)
(-0.781277 -0.0559421 -0.477731 -0.311641 -0.399427 1.09292)
(-0.464003 0.166875 0.145262 0.00686686 -0.214298 0.457136)
(-0.326505 0.112652 0.223577 -0.199005 -0.0155441 0.525511)
(-0.288969 0.0404995 0.193513 -0.205056 0.150938 0.494025)
(-0.394955 -0.0838328 0.0808181 -0.0658671 0.123168 0.460822)
(-0.578179 -0.146687 -0.0192748 0.0805323 0.0945315 0.497646)
(-0.540093 -0.133581 0.0148714 0.0723723 0.057221 0.46772)
(-0.44646 -0.168404 0.284467 -0.0682397 -0.0752202 0.5147)
(-0.587834 -0.151928 0.535046 -0.189786 -0.412735 0.777621)
(-0.730634 -0.0269251 0.254551 -0.26383 -0.716319 0.994465)
(-0.670598 0.00379753 -0.342156 -0.173707 -0.72581 0.844304)
(-0.303484 0.176643 0.140502 0.0746415 0.251289 0.228842)
(-0.15948 -0.0720327 0.189663 -0.173196 0.188579 0.332676)
(-0.13757 -0.0934124 0.141203 -0.293164 0.114487 0.430734)
(-0.319066 -0.0939847 0.082211 -0.2603 0.094318 0.579366)
(-0.522399 -0.0812391 -0.0141503 -0.158823 0.142821 0.681222)
(-0.486545 -0.0663468 -0.076249 -0.140481 0.184502 0.627025)
(-0.349771 -0.139073 -0.00830872 -0.227789 0.121947 0.57756)
(-0.387944 -0.187607 0.102678 -0.264115 -0.126864 0.65206)
(-0.520771 -0.038331 -0.0250715 -0.254511 -0.453612 0.775283)
(-0.56585 -0.00983314 -0.234987 -0.166195 -0.509335 0.732045)
(-0.31656 0.13849 -0.0208458 -0.0760009 0.244738 0.392561)
(-0.113256 -0.151211 0.045568 -0.290957 0.149765 0.404213)
(-0.00316927 -0.176107 0.0776197 -0.434154 0.0446958 0.437324)
(-0.198451 -0.110642 0.116964 -0.429794 0.0239618 0.628245)
(-0.445916 -0.0548155 0.0547284 -0.381377 0.0558812 0.827294)
(-0.432073 -0.0370497 -0.0811747 -0.416236 0.115714 0.848308)
(-0.256014 -0.0738101 -0.135033 -0.510609 0.0939712 0.766623)
(-0.186231 -0.113154 -0.125312 -0.520258 0.0256134 0.706489)
(-0.295417 -0.0377277 -0.214799 -0.423205 -0.116916 0.718621)
(-0.402462 -0.0514166 -0.262125 -0.323724 -0.142693 0.726186)
(-0.479587 0.126053 0.0337759 -0.15506 0.351465 0.634648)
(-0.245775 -0.111859 -0.024025 -0.304262 0.292758 0.550037)
(-0.044864 -0.187371 0.0277255 -0.404498 0.121438 0.449362)
(-0.184053 -0.136873 0.127267 -0.388327 0.00160751 0.57238)
(-0.448311 -0.08457 0.0936106 -0.352549 -0.062571 0.80086)
(-0.464768 -0.06168 -0.0731911 -0.406762 -0.091948 0.871529)
(-0.255323 -0.0612954 -0.161465 -0.51527 -0.0812523 0.770593)
(-0.130437 -0.0580597 -0.155647 -0.550321 -0.0501486 0.680758)
(-0.209426 -0.0529726 -0.229363 -0.46587 -0.0256645 0.675296)
(-0.346907 -0.0382869 -0.237634 -0.334729 -0.0176094 0.681636)
(-0.607331 0.144852 0.162875 -0.279875 0.758285 0.887206)
(-0.424905 -0.0428937 -0.14831 -0.382172 0.739121 0.807077)
(-0.205399 -0.202289 -0.142761 -0.391741 0.432188 0.59714)
(-0.268279 -0.219413 0.0173166 -0.317828 0.10601 0.586108)
(-0.502346 -0.160657 0.0272824 -0.221475 -0.0808548 0.723821)
(-0.524741 -0.106988 -0.0837839 -0.219783 -0.169888 0.744524)
(-0.335812 -0.0497294 -0.107902 -0.321833 -0.138739 0.657645)
(-0.254511 -0.00183589 -0.0779632 -0.417708 -0.0262664 0.672219)
(-0.337981 -0.0466211 -0.159886 -0.386681 0.140084 0.724662)
(-0.468245 -0.0434002 -0.229826 -0.213013 0.16774 0.681258)
(-0.647304 0.135423 0.374594 -0.584305 0.866298 1.23161)
(-0.560173 0.0179534 -0.342904 -0.670939 0.951338 1.23111)
(-0.341986 -0.152359 -0.534916 -0.612399 0.667814 0.954385)
(-0.292954 -0.230396 -0.29064 -0.460743 0.24157 0.753697)
(-0.465961 -0.181443 -0.104485 -0.247713 -0.0459597 0.713675)
(-0.504655 -0.117826 -0.0982266 -0.16741 -0.140951 0.672066)
(-0.378009 -0.0372939 -0.017341 -0.279941 -0.117098 0.65795)
(-0.385542 0.0345365 0.117863 -0.449589 0.064975 0.835131)
(-0.499806 0.00544449 -0.0093083 -0.467354 0.309829 0.96716)
(-0.594549 -0.042752 -0.271709 -0.260583 0.474519 0.855132)
(-0.598061 0.00752537 0.564591 -0.82299 0.270964 1.42105)
(-0.626223 -0.0163825 -0.371481 -0.857042 0.356691 1.48327)
(-0.436116 -0.0524706 -0.808397 -0.763416 0.297958 1.19953)
(-0.294965 -0.0675182 -0.62135 -0.58976 0.0240872 0.884726)
(-0.366111 -0.0615388 -0.306078 -0.392412 -0.154068 0.758523)
(-0.391347 -0.0891542 -0.147098 -0.296443 -0.196185 0.68779)
(-0.296003 -0.0856708 0.0868243 -0.397546 -0.173178 0.693549)
(-0.354838 -0.0114244 0.337293 -0.570107 -0.0715681 0.924945)
(-0.50461 0.0688013 0.274934 -0.621185 0.21698 1.1258)
(-0.599308 0.0421853 -0.0804507 -0.46518 0.539095 1.06449)
(-0.491989 0.00625049 0.489603 -0.809782 -0.55057 1.30177)
(-0.512636 -0.0430095 -0.340286 -0.771934 -0.552128 1.28457)
(-0.325022 0.00104552 -0.808282 -0.686123 -0.420515 1.01115)
(-0.189605 0.00620221 -0.653563 -0.584472 -0.31543 0.774077)
(-0.26422 -0.030231 -0.274244 -0.477419 -0.251929 0.741639)
(-0.262343 -0.0385077 -0.135344 -0.434796 -0.193522 0.697139)
(-0.114566 -0.0383187 0.0634835 -0.533942 -0.182665 0.648508)
(-0.116211 -0.0361227 0.485171 -0.641099 -0.21947 0.75731)
(-0.332363 0.0522394 0.612253 -0.659467 -0.0826748 0.99183)
(-0.526624 0.0227451 0.166734 -0.586104 0.117398 1.11273)
(-0.473973 0.794249 1.02259 -0.13886 0.8282 0.612833)
(-0.889904 0.332779 -0.490888 -0.194327 0.953717 1.08423)
(-0.618881 -0.120973 -1.66544 -0.403446 0.778824 1.02233)
(-0.0711209 -0.359012 -1.23136 -0.590618 0.862055 0.661739)
(-0.0280169 -0.209504 0.0732485 -0.508236 1.02245 0.536253)
(-0.195363 0.0541358 0.959532 -0.323907 0.993387 0.51927)
(-0.314321 0.0702443 1.16496 -0.115374 1.00464 0.429695)
(-0.560008 -0.0016447 0.755491 0.0815273 0.9596 0.478481)
(-0.538631 -0.396201 -0.386884 0.149092 0.844457 0.389539)
(-0.14955 -0.717483 -1.14216 0.0572865 0.3899 0.0922634)
(-0.296365 0.346468 1.02637 -0.709819 -0.841172 1.00618)
(-0.693633 0.0835963 -0.579006 -0.763493 -1.03314 1.45713)
(-0.619305 -0.171487 -1.58534 -0.696442 -0.56861 1.31575)
(-0.217958 -0.40033 -1.12646 -0.602301 0.123361 0.820259)
(-0.1336 -0.292941 0.0441766 -0.464669 0.475188 0.598269)
(-0.196293 0.102585 0.884996 -0.395818 0.180276 0.592111)
(-0.167968 0.294338 1.23003 -0.376266 -0.0541748 0.544234)
(-0.395082 0.24176 0.87936 -0.281512 -0.159641 0.676594)
(-0.501071 -0.0767243 -0.426207 -0.171187 -0.234002 0.672258)
(-0.00289878 -0.434406 -1.33892 -0.197802 -0.176078 0.200701)
(-0.352712 -0.0778542 0.596119 -0.432834 -1.69114 0.785545)
(-0.575611 -0.119399 -0.23778 -0.587343 -1.76613 1.16295)
(-0.588404 -0.16807 -0.667208 -0.595938 -1.05428 1.18434)
(-0.328114 -0.31202 -0.390797 -0.496428 -0.0403638 0.824542)
(-0.184727 -0.346683 0.0447823 -0.400374 0.347165 0.5851)
(-0.14545 -0.0779635 0.544887 -0.371465 0.00446986 0.516916)
(-0.0878449 0.121612 1.00631 -0.379953 -0.420883 0.467798)
(-0.292028 0.109572 0.732765 -0.350228 -0.733307 0.642256)
(-0.437398 -0.0853355 -0.329466 -0.189437 -0.677334 0.626835)
(0.0128661 -0.433734 -1.24777 -0.0634701 -0.174366 0.050604)
(-0.537235 -0.246284 0.757675 0.0473845 -0.914093 0.489851)
(-0.621944 -0.351839 0.250456 -0.0817836 -0.97069 0.703728)
(-0.598736 -0.304009 0.215095 -0.185315 -0.576509 0.784051)
(-0.421565 -0.321326 0.288865 -0.257322 0.0268914 0.678887)
(-0.31314 -0.371277 0.08311 -0.262852 0.386184 0.575993)
(-0.253135 -0.19448 0.123046 -0.199995 0.393006 0.45313)
(-0.195446 -0.0516667 0.549394 -0.182023 -0.0458948 0.377469)
(-0.307056 -0.0141404 0.61008 -0.144177 -0.530813 0.451233)
(-0.42717 0.0144116 0.0450255 -0.0284008 -0.589906 0.455571)
(-0.0214942 -0.183159 -1.14637 0.0770313 -0.0792418 -0.0555371)
(-0.501552 -0.0548115 0.896548 0.00916096 0.482428 0.492391)
(-0.602685 -0.221115 0.35384 0.0163359 0.369465 0.586349)
(-0.575672 -0.305106 0.397319 0.0155484 0.137174 0.560123)
(-0.420282 -0.316304 0.578984 -0.112169 0.0338123 0.532451)
(-0.33249 -0.24992 0.406281 -0.170347 0.212559 0.502837)
(-0.285837 0.0220389 0.0904224 -0.119499 0.461345 0.405336)
(-0.260522 0.247867 0.0822127 -0.0786051 0.226449 0.339127)
(-0.430704 0.26414 0.121073 0.0828585 -0.112103 0.347845)
(-0.570906 0.21058 -0.0937729 0.199082 -0.332484 0.371823)
(-0.126433 0.0379377 -1.07708 0.0831912 -0.25432 0.0432418)
(-0.327127 0.167438 0.929905 -0.21984 1.29221 0.546968)
(-0.533732 0.174539 0.0251417 -0.0950908 1.3196 0.628823)
(-0.547936 -0.0467192 -0.0671586 0.0466357 0.896882 0.5013)
(-0.378237 -0.216 0.362983 -0.0295314 0.385748 0.407768)
(-0.258729 -0.0361189 0.503889 -0.131635 0.0773044 0.390364)
(-0.227506 0.390738 0.125811 -0.162462 0.0663393 0.389968)
(-0.295618 0.649069 -0.0357684 -0.163654 0.0784223 0.459272)
(-0.577898 0.504172 0.0505797 -0.0628544 0.411653 0.640753)
(-0.746079 0.164721 -0.149429 0.012849 0.606159 0.73323)
(-0.297774 -0.0856916 -1.1783 -0.0646861 0.380968 0.36246)
(-0.0935266 0.11732 1.14785 -0.436452 1.27146 0.529978)
(-0.503749 0.313494 -0.164638 -0.260924 1.57193 0.764673)
(-0.579179 0.0997799 -0.581615 -0.107243 1.34896 0.686422)
(-0.33259 -0.151632 -0.23084 -0.156277 0.854559 0.488867)
(-0.115851 -0.00289567 0.0834819 -0.262449 0.24368 0.3783)
(-0.108019 0.473196 0.0728847 -0.353399 0.000943846 0.461418)
(-0.34428 0.649268 0.416487 -0.471299 0.386335 0.81558)
(-0.712825 0.408929 0.619261 -0.512875 1.07218 1.2257)
(-0.805526 0.0597058 -0.00188189 -0.508434 1.35979 1.31396)
(-0.325853 -0.129677 -1.39522 -0.457407 0.9576 0.78326)
(0.0100518 -0.0392152 1.33965 -0.599105 0.569014 0.589053)
(-0.461748 0.202238 -0.0881798 -0.530546 0.938724 0.992294)
(-0.530263 0.0453244 -0.889797 -0.44212 0.995151 0.972382)
(-0.276894 -0.111769 -0.793299 -0.469171 0.727471 0.746065)
(0.0477561 -0.0429105 -0.386115 -0.533069 0.31131 0.485313)
(0.072664 0.256385 0.259838 -0.670534 0.122981 0.59787)
(-0.314263 0.322487 1.03034 -0.802284 0.517465 1.11655)
(-0.749018 0.189064 1.04621 -0.888967 0.90344 1.63798)
(-0.811503 0.0671621 -0.114824 -0.912257 0.909185 1.72376)
(-0.204797 0.111047 -1.69949 -0.855409 0.528877 1.06021)
(-0.026925 -0.378021 1.22006 -0.480812 -0.473801 0.507737)
(-0.436086 -0.0709765 0.071959 -0.526285 -0.496901 0.962371)
(-0.401235 -0.127859 -0.845629 -0.538604 -0.292803 0.93984)
(-0.181113 -0.14967 -0.890119 -0.540272 -0.0770872 0.721386)
(0.0713629 -0.00199104 -0.545503 -0.597001 -0.0358524 0.525639)
(0.135833 0.0133314 0.27616 -0.750291 -0.110613 0.614458)
(-0.265352 -0.0227817 1.17569 -0.790907 -0.068591 1.05626)
(-0.712718 0.0371786 1.00585 -0.835489 -0.355098 1.54821)
(-0.73857 0.228575 -0.309086 -0.860304 -0.587592 1.59887)
(-0.128119 0.504388 -1.54658 -0.827571 -0.420534 0.95569)
(-0.12751 -0.676854 0.666071 -0.151424 -1.04371 0.278934)
(-0.477228 -0.341509 -0.0393326 -0.0717238 -1.35208 0.548952)
(-0.36054 -0.371957 -0.459708 -0.068441 -1.40934 0.428981)
(-0.109745 -0.306495 -0.354963 -0.0373634 -1.27165 0.147108)
(-0.00247563 -0.0537437 -0.309413 -0.107418 -1.1916 0.109894)
(0.00501051 -0.0976186 0.101332 -0.224066 -1.15948 0.219055)
(-0.156563 -0.130794 0.611857 -0.237847 -1.29656 0.39441)
(-0.527449 0.0863998 0.448069 -0.145227 -1.68951 0.672677)
(-0.629112 0.48858 -0.203082 -0.138574 -1.75927 0.767686)
(-0.201705 0.826494 -0.713906 -0.290854 -0.987133 0.492559)
(-0.0691234 0.825849 1.74794 0.334931 1.10608 -0.265808)
(-0.258046 0.373049 0.480983 0.136922 1.51662 0.121124)
(-0.525629 0.0684881 -1.26731 -0.0270906 1.65546 0.55272)
(-0.785972 -0.265553 -1.72431 0.0514151 1.61152 0.734557)
(-0.677925 -0.278228 -0.820735 0.261337 1.91968 0.416588)
(-0.533377 0.113832 0.036239 0.574002 1.8777 -0.0406251)
(-0.379054 0.444526 0.665282 0.72454 1.28526 -0.345486)
(-0.127534 0.492401 0.936261 0.563883 0.406295 -0.436349)
(0.244892 0.0146563 -0.0090133 0.232021 0.182256 -0.476914)
(0.559685 -0.548703 -0.474563 -0.0898322 -0.38005 -0.469853)
(0.0368074 0.342896 2.14959 -0.320645 -0.545231 0.283838)
(-0.254167 0.182322 0.455214 -0.413101 -0.626883 0.667268)
(-0.405184 0.0341109 -1.47603 -0.532 -0.460622 0.937183)
(-0.587889 -0.171336 -1.84499 -0.421304 -0.00960427 1.00919)
(-0.359686 -0.182974 -1.00617 -0.268165 0.444723 0.627851)
(0.11219 0.36586 -0.278653 -0.176773 0.20088 0.0645827)
(0.277407 0.649913 0.52053 0.0409438 -0.332605 -0.318351)
(0.0812505 0.370865 0.867004 0.195169 -0.671856 -0.276419)
(0.0987353 0.0943724 -0.00879827 0.0830147 -1.03652 -0.18175)
(0.274785 0.0298406 -0.368311 -0.144241 -1.39793 -0.130544)
(0.189201 0.102573 2.34347 -0.80311 -1.18495 0.613909)
(-0.129603 0.051777 0.56653 -0.841679 -1.66744 0.971282)
(-0.370366 -0.0633345 -0.917809 -0.809119 -1.47597 1.17949)
(-0.477623 -0.177354 -1.18392 -0.678431 -0.478851 1.15605)
(-0.083117 0.0463445 -0.857261 -0.49187 0.16126 0.574987)
(0.471345 0.507063 -0.622841 -0.426651 -0.0749079 -0.0446941)
(0.51503 0.525515 0.19779 -0.260732 -0.414874 -0.254298)
(0.119162 0.0816724 0.527369 0.020938 -0.937948 -0.1401)
(-0.0695968 -0.195405 -0.402102 0.209219 -1.41489 -0.139622)
(0.177655 -0.32498 -0.58245 0.0331063 -1.77707 -0.210762)
(0.317179 -0.14775 2.19601 -0.826695 -0.684047 0.509516)
(-0.099414 -0.174226 0.47668 -0.749219 -1.27866 0.848633)
(-0.429926 -0.176654 -0.155153 -0.52091 -1.19341 0.950837)
(-0.424474 0.00549591 -0.286756 -0.303817 -0.475845 0.728291)
(-0.0113021 0.468889 -0.635957 -0.132946 -0.12329 0.144248)
(0.232861 0.657651 -0.721029 0.00530137 0.116924 -0.238162)
(0.118225 0.516496 -0.171963 0.0862403 0.314746 -0.204466)
(-0.135025 0.0875048 -0.0418975 0.120334 -0.0520156 0.0146914)
(-0.117181 -0.447407 -0.836727 0.15441 -0.35947 -0.0372291)
(0.359404 -0.695465 -1.31425 -0.0962394 -0.702898 -0.263165)
(0.362633 -0.00347365 2.17194 -0.635653 0.0185061 0.27302)
(-0.226975 0.015261 0.55616 -0.263262 -0.357332 0.490237)
(-0.574 0.0667269 0.0478648 0.175709 -0.651888 0.398291)
(-0.389066 0.354017 -0.108672 0.309722 -0.618708 0.0793441)
(0.0456588 0.707526 -0.266616 0.232691 -0.366683 -0.278349)
(0.00338386 0.800376 -0.137637 0.317666 0.419686 -0.321049)
(-0.334833 0.474194 0.0969672 0.360829 1.10776 -0.0259962)
(-0.438959 0.0636993 -0.114271 0.137374 1.45329 0.301585)
(-0.234518 -0.289212 -1.07007 -0.10753 1.5216 0.342048)
(0.319888 -0.562129 -2.09438 -0.302136 0.971007 -0.0177516)
(0.637392 0.301559 1.97939 -0.583948 0.579184 -0.053444)
(-0.150053 0.540842 0.01841 -0.00285847 0.620628 0.152912)
(-0.578045 0.510548 -0.393846 0.502224 0.179342 0.075821)
(-0.335113 0.513725 -0.0807775 0.446429 -0.189966 -0.111316)
(0.19339 0.618442 0.380489 0.0558744 -0.0828738 -0.249264)
(0.0206649 0.673197 0.76426 -0.0834022 0.653499 0.0627373)
(-0.521016 0.344641 0.840571 -0.144851 1.55541 0.665866)
(-0.663441 -0.0431666 0.319014 -0.330282 2.26827 0.993723)
(-0.449447 -0.307603 -1.1793 -0.460263 2.48375 0.90971)
(0.111262 -0.50075 -2.83593 -0.529004 2.03722 0.417742)
(0.837101 0.37018 1.94605 -0.487544 0.901533 -0.349557)
(0.0953102 0.563144 -0.144699 -0.0245536 1.26947 -0.0707566)
(-0.376592 0.396691 -0.838022 0.227816 1.18 0.148776)
(-0.363646 0.279025 -0.504493 0.108593 0.728018 0.255053)
(0.0801508 0.22379 0.558107 -0.296872 0.339325 0.216722)
(-0.0540189 0.174207 1.51425 -0.565457 0.631276 0.619476)
(-0.626327 0.00218371 1.74467 -0.744171 1.37098 1.3705)
(-0.750892 -0.135205 0.879985 -0.873864 1.93737 1.62476)
(-0.475073 -0.259641 -1.18952 -0.895084 1.9877 1.37016)
(0.0613215 -0.41155 -3.34877 -0.847596 1.94713 0.786275)
(0.399781 0.403112 1.41759 -0.124759 0.785746 -0.275022)
(0.165231 0.346045 -0.140476 -0.155485 0.967513 -0.00974611)
(-0.0854875 0.0714921 -1.17476 -0.22426 0.962325 0.309748)
(-0.236625 -0.070546 -1.13136 -0.347108 0.47422 0.583733)
(-0.219232 -0.117358 0.293155 -0.525193 0.171934 0.744425)
(-0.290612 -0.21624 1.85345 -0.694537 0.109711 0.985149)
(-0.663247 -0.284558 2.18001 -0.837236 0.250133 1.50048)
(-0.735969 -0.148498 1.06745 -0.864127 0.38734 1.6001)
(-0.50191 -0.135574 -1.04988 -0.883461 0.407407 1.38537)
(-0.0701478 -0.300218 -2.98172 -0.872228 0.816945 0.942376)
(-0.125918 0.149944 1.10162 0.149122 -0.190925 -0.0232045)
(-0.0819326 0.257791 -0.255808 -0.18206 -0.31005 0.263993)
(0.0529177 0.00183625 -1.44591 -0.398072 -0.564731 0.345154)
(-0.110151 -0.294575 -1.32192 -0.469099 -0.991848 0.579251)
(-0.377959 -0.292478 0.145235 -0.478071 -1.05973 0.85603)
(-0.46215 -0.367451 1.5802 -0.611812 -1.30419 1.07396)
(-0.62823 -0.426503 1.93326 -0.605886 -1.86433 1.23412)
(-0.669995 -0.282404 1.01001 -0.551039 -2.03521 1.22103)
(-0.578714 -0.226658 -0.667472 -0.641453 -1.52504 1.22017)
(-0.166036 -0.193555 -2.14168 -0.744925 -0.761774 0.910961)
(-0.321203 -0.368721 0.559135 0.351651 -0.773386 -0.0304473)
(-0.344389 0.264112 -0.793819 -0.0326175 -0.948871 0.377007)
(-0.139739 0.00964665 -1.97216 -0.222404 -1.2334 0.362143)
(-0.303977 -0.429211 -1.48681 -0.101584 -1.67496 0.40556)
(-0.536075 -0.415741 -0.0913589 -0.016069 -2.07805 0.552144)
(-0.620505 -0.386762 0.752222 -0.144557 -2.52569 0.765062)
(-0.730355 -0.436114 1.22782 -0.0674336 -3.26584 0.797789)
(-0.724212 -0.394355 1.29289 -0.0789708 -3.45789 0.803183)
(-0.624368 -0.251696 0.318372 -0.175772 -2.76319 0.80014)
(-0.086859 0.464802 -0.987924 -0.251443 -1.71897 0.338302)
(0.188369 0.900848 2.10617 0.282989 2.04861 -0.471358)
(0.276127 0.28737 1.25058 -0.0218295 1.80606 -0.254297)
(0.238186 0.10227 -0.470814 -0.169608 1.40222 -0.0685779)
(-0.437927 0.14571 -2.03817 0.149571 1.45814 0.288356)
(-0.745151 0.0592861 -2.12294 0.462779 1.87303 0.282372)
(-0.721998 0.0722713 -0.996904 0.737167 2.0794 -0.015169)
(-0.533809 0.266424 0.0474116 0.743657 1.54479 -0.209848)
(-0.228278 0.388192 0.493029 0.377221 1.20891 -0.148943)
(-0.101665 0.298157 0.481814 -0.0307247 1.23762 0.13239)
(-0.0661163 0.0279778 -0.404942 -0.253708 1.20944 0.319825)
(-0.188976 0.304103 1.93589 0.0575485 0.521348 0.131428)
(-0.172093 0.0628372 0.627913 -0.193689 0.21152 0.365783)
(0.23363 0.262585 -1.09326 -0.418632 -0.388534 0.185003)
(-0.0765511 0.219911 -2.26531 -0.401392 -0.474576 0.477943)
(-0.341824 -0.0512334 -2.18865 -0.17554 -0.194063 0.517364)
(-0.192348 0.00554384 -1.21209 0.0737214 -0.0900602 0.118627)
(0.0683637 0.34206 0.142689 0.235818 -0.338471 -0.304182)
(0.18041 0.411395 1.01586 0.12669 0.148856 -0.3071)
(0.0188469 0.436091 0.688576 -0.0922767 0.491784 0.0734297)
(-0.570176 0.43146 -0.205086 -0.113758 0.0523918 0.683934)
(-0.325038 0.109345 1.92371 -0.394542 -1.59931 0.71958)
(-0.335462 0.250523 0.2733 -0.323954 -1.72868 0.659415)
(0.0324994 0.513609 -1.22725 -0.474201 -1.84152 0.441701)
(-0.12309 0.220657 -2.11089 -0.603741 -1.52125 0.726831)
(-0.165671 -0.0449034 -1.98879 -0.455812 -0.698246 0.621483)
(0.288532 0.142573 -1.11801 -0.290078 -0.46371 0.00154668)
(0.617467 0.294471 0.593849 -0.196295 -0.342272 -0.421172)
(0.284163 0.202627 1.45724 0.0276374 -0.165047 -0.311801)
(-0.22849 0.364278 0.514018 0.185749 -0.258364 0.042741)
(-0.894291 0.366309 -0.340735 0.271086 -0.646949 0.623204)
(-0.0334433 0.257695 1.97582 -0.857863 -2.08204 0.891306)
(-0.098238 0.357525 0.266509 -0.68703 -2.27821 0.785268)
(-0.0132476 0.29236 -0.924302 -0.728636 -2.21403 0.741884)
(-0.300113 0.0333162 -1.25529 -0.558866 -1.61248 0.858978)
(-0.0819709 0.159207 -1.22178 -0.317432 -0.708036 0.399403)
(0.495648 0.393897 -0.739706 -0.315557 0.00907338 -0.18009)
(0.624806 0.161939 0.654643 -0.294787 0.533607 -0.330019)
(0.26403 -0.144507 1.25096 -0.0694494 0.24361 -0.194581)
(-0.315782 -0.141513 0.363034 0.23381 -0.138539 0.0819724)
(-0.906693 -0.101552 -0.181239 0.26563 -0.539271 0.641062)
(0.248939 0.269857 2.03393 -1.00373 -1.15681 0.754792)
(0.0280798 0.157819 0.305117 -0.671826 -1.33768 0.643746)
(-0.140708 -0.0409065 -0.507604 -0.354732 -1.34624 0.49544)
(-0.383275 0.113041 -0.62681 0.106215 -0.925102 0.27706)
(-0.149808 0.424558 -0.451503 0.254129 -0.302569 -0.10432)
(0.16183 0.356727 0.181034 0.0282429 0.946444 -0.190073)
(0.19672 -0.00511583 0.836365 -0.206086 1.90137 0.00936599)
(0.184076 -0.402391 0.91897 -0.345552 2.06329 0.161476)
(0.0135301 -0.64359 -0.113244 -0.290399 1.65837 0.276869)
(-0.417575 -0.594428 -1.03422 -0.243078 0.741201 0.660653)
(0.452441 0.267712 2.24152 -0.8697 -0.195604 0.417259)
(0.143739 0.11709 0.352375 -0.437769 0.0111402 0.294031)
(-0.185597 0.034987 -0.555153 0.236283 0.373555 -0.0506853)
(-0.402525 0.212543 -0.280376 0.603231 0.702896 -0.200706)
(-0.260028 0.237842 0.5602 0.462338 0.900005 -0.20231)
(-0.228004 0.0829665 1.46583 0.098684 1.71709 0.12932)
(-0.296152 -0.160768 1.67238 -0.337582 2.76658 0.633735)
(-0.0609766 -0.454115 0.834544 -0.673186 3.02257 0.734162)
(0.297325 -0.663078 -0.945098 -0.96572 2.56146 0.668396)
(0.0716661 -0.595475 -2.19235 -0.896571 1.80427 0.824905)
(0.358316 0.341884 2.16956 -0.64952 0.562716 0.291205)
(0.197398 0.335711 0.754919 -0.316136 0.822535 0.118738)
(0.0529347 0.170703 -0.000937438 0.0358976 1.73292 -0.0888324)
(-0.0929959 0.0912106 -0.216483 0.0595656 2.07675 0.0334303)
(-0.19645 -0.0151215 0.727058 0.0109451 1.93436 0.185505)
(-0.379309 -0.236146 2.21197 -0.256641 2.03964 0.63595)
(-0.488753 -0.333707 2.20655 -0.532164 2.3152 1.02092)
(-0.303291 -0.374858 0.752546 -0.611516 1.87059 0.914807)
(0.191816 -0.376493 -1.29448 -0.893342 1.43181 0.701526)
(0.156332 -0.285351 -2.68437 -0.989482 1.44323 0.83315)
(0.0525722 0.371174 1.82536 -0.413594 1.1374 0.361022)
(0.0113066 0.454528 1.1986 -0.353299 1.19322 0.341992)
(0.16578 0.368457 0.703868 -0.448672 1.59003 0.282892)
(0.201278 0.154377 -0.183304 -0.581208 1.70249 0.379929)
(-0.0336633 -0.170799 0.537696 -0.616597 1.7401 0.65026)
(-0.347151 -0.519104 1.99463 -0.646616 1.41572 0.993767)
(-0.417853 -0.504302 1.61273 -0.567316 0.782132 0.985169)
(-0.324622 -0.27706 0.0731714 -0.432807 0.0465442 0.757429)
(-0.175687 -0.215272 -1.21619 -0.288133 -0.202982 0.46382)
(-0.230917 -0.336237 -2.4903 -0.366626 0.066681 0.597544)
(-0.289079 0.222158 1.89226 -0.169591 0.792381 0.45867)
(-0.239208 0.419766 1.07199 -0.330131 0.916514 0.56934)
(0.0596909 0.625959 0.483769 -0.711199 0.298584 0.651508)
(0.126302 0.354188 -0.220591 -0.932053 -0.0170613 0.805751)
(-0.0973783 -0.268294 0.449369 -0.951494 0.0749321 1.04887)
(-0.507045 -0.620035 1.32305 -0.69293 -0.474532 1.19997)
(-0.550876 -0.555686 0.880883 -0.40047 -1.27132 0.951346)
(-0.302343 -0.356195 -0.168849 -0.313951 -1.41912 0.616295)
(-0.279045 -0.322079 -1.17484 -0.158195 -1.38829 0.43724)
(-0.341666 -0.498551 -2.58704 -0.077995 -1.41673 0.419661)
(-0.498366 -0.0586688 2.28651 0.222693 -1.12957 0.275673)
(-0.454051 0.363832 0.83443 -0.121486 -0.878432 0.575537)
(-0.137632 0.603632 -0.161739 -0.651288 -1.13591 0.78892)
(-0.202249 0.30561 -0.473158 -0.935013 -1.09913 1.13726)
(-0.478248 -0.203231 -0.0565976 -0.894248 -1.3246 1.3725)
(-0.758612 -0.381945 0.522236 -0.651314 -2.07231 1.40993)
(-0.710024 -0.388057 0.451961 -0.507781 -2.64994 1.2178)
(-0.402905 -0.503556 -0.203851 -0.466964 -2.78922 0.869869)
(-0.315454 -0.613449 -1.21992 -0.216969 -2.92656 0.532423)
(-0.24782 -0.368461 -2.77415 0.00447785 -3.08924 0.243342)
(0.212791 1.10294 1.78161 -0.0430608 2.52306 -0.16973)
(0.488543 0.695277 0.921293 -0.223605 2.97299 -0.264937)
(1.18913 0.173374 0.0209227 -0.527666 1.98781 -0.661463)
(0.576323 0.0321171 -1.40483 -0.160657 1.56307 -0.415666)
(-0.849753 -0.11688 -2.18802 0.313213 1.34268 0.53654)
(-1.2791 -0.310688 -1.56764 0.395836 0.828744 0.883268)
(-1.36707 -0.218993 0.0287098 0.281619 -0.600145 1.08545)
(-1.17295 -0.0990099 1.62495 -0.0734051 -1.34129 1.24635)
(-0.627954 -0.424955 1.76875 -0.508892 -0.75375 1.13685)
(0.349691 -0.797322 -0.307243 -0.88289 1.15199 0.533199)
(0.00499538 0.714538 2.37356 -0.207257 1.83066 0.202262)
(-0.0432282 0.368676 0.599123 -0.385936 1.79054 0.429164)
(0.606389 0.19782 -0.639458 -0.567115 1.11788 -0.0392746)
(0.489492 0.0976023 -1.80475 -0.42525 0.462127 -0.0642417)
(-0.428729 -0.176927 -2.74071 -0.159273 0.173982 0.588001)
(-0.6567 -0.448972 -2.41587 0.183131 -0.265691 0.473569)
(-0.601342 -0.350016 -0.863202 0.335031 -0.677526 0.266311)
(-0.760744 -0.223828 1.45523 -0.043781 -0.880621 0.804526)
(-0.634843 -0.324878 2.45658 -0.571931 -1.02185 1.20677)
(-0.00368055 -0.450113 0.985255 -1.09764 -0.377738 1.10132)
(-0.366609 0.248066 2.32724 -0.281548 0.57869 0.648156)
(-0.595798 0.419846 0.208895 -0.241918 0.188057 0.837716)
(-0.152136 0.668824 -1.27253 -0.139377 -0.319972 0.291513)
(-0.0542085 0.40586 -2.25299 -0.22599 -0.864093 0.280198)
(-0.318655 -0.0704735 -2.95609 -0.404854 -0.94813 0.72351)
(-0.179519 -0.266231 -2.37672 -0.15561 -0.553695 0.33513)
(-0.0333798 -0.397795 -0.50619 0.0565361 0.0900582 -0.0231563)
(-0.477592 -0.529463 1.3651 0.175081 0.463673 0.302511)
(-0.730659 -0.436256 1.94818 -0.264256 -0.323634 0.994916)
(-0.451387 -0.142606 0.741196 -0.722184 -0.885183 1.17357)
(-0.498749 0.115223 1.81379 -0.482302 -1.16239 0.981051)
(-0.535294 0.438481 -0.267382 -0.379206 -1.95777 0.9145)
(-0.217639 0.681858 -1.61224 -0.476332 -2.25424 0.693972)
(-0.252668 0.278563 -2.41255 -0.61716 -2.26939 0.869828)
(-0.216965 0.0227112 -2.55459 -0.567292 -1.58868 0.784256)
(0.112303 0.147006 -1.53083 -0.363201 -0.218526 0.250898)
(0.0676562 -0.300163 0.346565 -0.103432 1.16171 0.0357762)
(-0.49516 -0.840606 1.15637 0.315063 1.25644 0.180096)
(-0.779095 -0.668725 1.1503 0.188879 0.292958 0.590216)
(-0.726912 0.0144079 0.30761 -0.176617 -0.896545 0.903528)
(-0.25799 0.115905 0.924885 -0.866259 -1.94054 1.12425)
(-0.153592 0.26051 -1.01766 -0.731003 -2.86199 0.884595)
(-0.049928 0.232544 -1.69659 -0.777075 -2.88465 0.827003)
(-0.319863 0.152037 -1.65479 -0.451026 -2.33048 0.770888)
(-0.2596 0.510578 -1.0574 -0.159978 -0.967978 0.419578)
(-0.153838 0.574957 0.328111 -0.184616 1.22829 0.338454)
(-0.280532 -0.148831 1.08273 -0.126817 2.77388 0.40735)
(-0.341532 -0.843012 0.733391 0.0601622 2.66427 0.28137)
(-0.304129 -0.93099 0.074347 0.242191 1.82874 0.0619375)
(-0.450055 -0.392992 -0.248462 -0.167446 0.512691 0.617501)
(0.0771523 0.109122 0.290085 -1.24893 -1.40234 1.17178)
(0.140674 0.0674917 -1.4301 -0.84446 -1.92922 0.703786)
(0.129524 -0.0675042 -1.19808 -0.543131 -1.36627 0.413606)
(-0.190857 0.226703 -0.495348 -0.160969 -0.156079 0.351826)
(-0.249993 0.554772 0.922798 -0.0330123 1.13254 0.283005)
(-0.462179 0.439716 2.2304 -0.225189 2.57319 0.687368)
(-0.510764 0.106894 1.95562 -0.268781 3.36093 0.779545)
(-0.19215 -0.304059 0.343381 -0.373442 2.90009 0.565593)
(0.288097 -0.617713 -0.843945 -0.518819 2.34401 0.230722)
(0.350863 -0.580437 -1.17542 -0.805904 1.61193 0.455041)
(0.218099 0.129387 -0.503239 -1.38687 0.0717474 1.16878)
(0.177599 0.0631215 -1.24755 -0.965847 0.404742 0.788248)
(0.15078 -0.261448 -0.0633643 -0.528712 1.20016 0.377932)
(0.275917 -0.0345874 0.630984 -0.630038 1.85307 0.35412)
(0.23933 0.202981 1.79072 -0.7256 2.26282 0.486271)
(-0.181633 0.170684 2.69463 -0.544607 2.58599 0.72624)
(-0.139389 0.0726169 1.62201 -0.345214 1.95331 0.484603)
(0.0323403 -0.305445 -0.054 -0.275166 1.34655 0.242826)
(0.0288183 -0.357049 -0.943365 -0.225591 1.14921 0.196772)
(0.133676 -0.181106 -1.64642 -0.288132 0.987339 0.154456)
(-0.0742695 -0.0565787 -0.20256 -0.899562 1.04564 0.973831)
(-0.0624591 -0.0609838 -0.684876 -0.824287 2.01163 0.886746)
(0.0964784 -0.303697 0.10932 -0.619355 2.23537 0.522877)
(0.500547 -0.196308 0.706216 -0.801899 1.94972 0.301351)
(0.540487 -0.0734898 1.6446 -1.05577 1.6737 0.515284)
(0.173474 -0.17717 1.84 -0.819978 1.19718 0.646504)
(0.266194 -0.350013 0.758453 -0.584658 0.368908 0.318465)
(0.0114654 -0.543076 -0.253688 -0.225791 0.104414 0.214326)
(-0.501462 -0.411617 -1.03349 0.60777 -0.253107 -0.106308)
(-0.301611 -0.0942366 -1.85242 0.833097 -0.82866 -0.531487)
(-0.664121 -0.516107 1.10114 0.20296 0.165085 0.461162)
(-0.664848 -0.245165 0.0456918 -0.113438 1.53835 0.778286)
(-0.178076 -0.214281 -0.209942 -0.40419 1.62473 0.582266)
(0.397277 -0.215048 -0.181908 -0.717495 1.1871 0.320218)
(0.355495 -0.438505 0.825865 -0.850893 0.658208 0.495398)
(0.0898278 -0.475442 1.25204 -0.689741 -0.0951453 0.599914)
(0.629722 -0.515376 0.427098 -0.945603 -0.477586 0.315881)
(0.568331 -0.391769 -0.61132 -0.686864 -0.759559 0.118533)
(-0.0293578 0.17518 -1.7917 0.221265 -1.52842 -0.191907)
(-0.134711 0.468344 -2.49278 0.945239 -2.53995 -0.810528)
(-0.758114 -0.79821 2.38591 1.0165 -1.63462 -0.258382)
(-0.951187 -0.395396 1.09626 0.678723 -0.887996 0.272464)
(-0.511109 -0.0650491 0.00567189 -0.0132895 -0.591167 0.524399)
(-0.0139902 0.0522286 -0.309484 -0.486735 -0.473353 0.500725)
(-0.15632 -0.192834 0.271792 -0.468855 -0.386437 0.625175)