/*--------------------------------*- C++ -*----------------------------------*\
| =========                 |                                                 |
| \\      /  F ield         | OpenFOAM: The Open Source CFD Toolbox           |
|  \\    /   O peration     | Version:  2406                                  |
|   \\  /    A nd           | Website:  www.openfoam.com                      |
|    \\/     M anipulation  |                                                 |
\*---------------------------------------------------------------------------*/
FoamFile
{
    version     2.0;
    format      ascii;
    arch        "LSB;label=32;scalar=64";
    class       volSymmTensorField;
    location    "0.1";
    object      turbulenceProperties:R;
}
// * * * * * * * * * * * * * * * * * * * * * * * * * * * * * * * * * * * * * //

dimensions      [0 2 -2 0 0 0 0];

internalField   uniform (0 0 -0 0 -0 0);

boundaryField
{
    walls
    {
        type            calculated;
        value           nonuniform List<symmTensor> 
2000
(
(1.25299e-06 7.85017e-07 1.74476e-05 -1.95454e-06 -1.47388e-05 7.01552e-07)
(-8.96466e-07 -4.20891e-08 1.81342e-05 3.14151e-07 -1.07249e-05 5.82315e-07)
(-1.4918e-06 -5.83869e-07 1.4838e-05 5.96248e-07 -5.72173e-06 8.95555e-07)
(-1.47593e-06 -6.36204e-08 1.04542e-05 2.69774e-07 -2.21742e-06 1.20616e-06)
(-1.77167e-06 -9.82575e-08 8.76539e-06 4.29693e-07 -5.21438e-07 1.34198e-06)
(-1.70505e-06 -1.2087e-06 8.08278e-06 3.06428e-07 7.27163e-07 1.39862e-06)
(-8.42263e-07 -1.45826e-06 7.45681e-06 -4.08554e-07 1.71146e-06 1.25082e-06)
(-4.78945e-07 -6.74001e-07 1.04909e-05 -6.20423e-07 4.02855e-06 1.09937e-06)
(-1.01945e-06 3.22266e-08 1.50952e-05 1.74876e-08 8.78148e-06 1.00196e-06)
(-1.30522e-06 -4.43267e-07 1.6126e-05 1.7278e-07 1.33373e-05 1.13244e-06)
(3.35662e-06 7.22657e-07 4.72203e-06 -3.78219e-06 -4.1876e-06 4.25564e-07)
(1.29886e-06 8.53156e-07 7.38163e-06 -1.67908e-06 -4.38045e-06 3.80215e-07)
(-2.29275e-07 -3.16715e-07 6.18666e-06 1.05981e-07 -2.26941e-06 1.23294e-07)
(-6.99465e-07 -2.28825e-06 4.74961e-06 7.94766e-07 -7.48534e-07 -9.53002e-08)
(1.29406e-07 -2.24605e-06 1.74056e-06 -9.7304e-08 1.172e-07 -3.2102e-08)
(3.10451e-07 -6.11951e-07 4.79017e-07 -3.59301e-07 6.48077e-08 4.88499e-08)
(1.92648e-07 -2.47571e-09 6.66296e-07 -2.33807e-07 1.16679e-07 4.1159e-08)
(2.12224e-07 1.55818e-08 1.64501e-06 -3.41741e-07 6.637e-07 1.29517e-07)
(4.18722e-08 -1.2328e-08 6.30266e-07 -2.3614e-07 4.37344e-07 1.94268e-07)
(-4.29099e-08 6.35079e-09 4.49033e-08 -5.58299e-09 4.26641e-08 4.84928e-08)
(-6.60272e-06 -1.44606e-06 -7.82529e-05 5.62075e-06 6.39438e-05 9.8197e-07)
(-1.76298e-05 -7.42906e-06 -7.70453e-05 1.56673e-05 4.5492e-05 1.96248e-06)
(-1.94909e-05 -1.68533e-05 -5.24237e-05 1.74561e-05 2.00647e-05 2.03488e-06)
(-1.40209e-05 -2.8839e-05 -3.58232e-05 1.30452e-05 7.74495e-06 9.75752e-07)
(-1.48846e-06 -2.8772e-05 -2.8864e-05 9.37624e-07 2.32553e-06 5.50834e-07)
(4.53288e-06 -1.24322e-05 -2.36371e-05 -5.29354e-06 -1.0357e-06 7.60663e-07)
(4.14235e-06 -1.37012e-06 -3.95876e-05 -4.3951e-06 -7.26558e-06 2.52757e-07)
(5.07846e-06 -3.00791e-06 -9.32373e-05 -5.98271e-06 -3.17635e-05 9.04249e-07)
(1.75911e-05 -2.55576e-06 -0.000272476 -1.87945e-05 -0.000153271 1.20345e-06)
(-7.75172e-06 8.98257e-06 -0.000294803 7.19561e-06 -0.000243617 5.56111e-07)
(-2.94715e-05 -6.53915e-06 -3.94069e-05 3.15239e-05 3.52374e-05 -2.05246e-06)
(-5.90124e-05 -3.32823e-05 -0.000132549 6.21387e-05 8.56222e-05 -3.12625e-06)
(-5.56726e-05 -6.77145e-05 -0.000228381 6.00278e-05 9.51828e-05 -4.35521e-06)
(-2.35786e-05 -7.06257e-05 -0.000201789 2.82491e-05 4.35319e-05 -4.67051e-06)
(2.03623e-06 -5.0773e-05 -0.000112323 2.05834e-06 3.91163e-06 -4.09457e-06)
(1.15669e-05 -2.57671e-05 -5.13976e-05 -8.12488e-06 -5.79918e-06 -3.44205e-06)
(1.61927e-05 -1.73756e-05 -4.96553e-05 -1.23857e-05 -1.19285e-05 -3.80697e-06)
(1.96621e-05 -1.25557e-05 -6.06586e-05 -1.62228e-05 -2.58286e-05 -3.4393e-06)
(7.72453e-06 -2.9085e-06 -3.85383e-05 -6.03462e-06 -2.56155e-05 -1.68991e-06)
(1.47564e-06 -7.78336e-07 -9.32223e-06 -6.62155e-07 -8.51231e-06 -8.13485e-07)
(-5.16547e-08 1.56506e-08 7.48953e-08 9.82932e-08 -5.71017e-08 -4.66385e-08)
(-5.91968e-06 -2.34396e-06 -3.289e-06 6.60525e-06 2.33958e-06 -6.85575e-07)
(-2.59223e-05 -2.63711e-05 -2.31125e-05 2.79013e-05 1.01871e-05 -1.97907e-06)
(-1.40111e-05 -3.59357e-05 -3.7863e-05 1.52549e-05 8.60423e-06 -1.24375e-06)
(7.55739e-07 -1.23256e-05 -2.33511e-05 -1.1332e-06 7.26526e-08 3.7746e-07)
(9.0468e-07 1.5021e-06 -2.61107e-06 -9.06692e-07 -8.84542e-07 2.01162e-09)
(-4.1849e-06 1.47061e-05 1.36747e-06 4.44625e-06 -1.25314e-06 -2.61351e-07)
(-3.57586e-05 3.93985e-05 1.39102e-05 3.61908e-05 2.71643e-06 -4.3224e-07)
(-5.40532e-05 2.18778e-05 2.37062e-05 5.32741e-05 1.12727e-05 7.79134e-07)
(-2.06578e-05 -1.726e-06 2.52666e-05 2.13794e-05 1.95158e-05 -7.21563e-07)
(1.16677e-05 2.83387e-06 3.67638e-06 -1.17379e-05 -2.76405e-06 7.02275e-08)
(5.60051e-06 3.65526e-06 -2.92817e-06 -5.71283e-06 2.22784e-06 1.12313e-07)
(2.85392e-06 4.42666e-06 -9.75999e-06 -3.44342e-06 4.00585e-06 5.89504e-07)
(2.19825e-06 8.84833e-06 -1.80908e-05 -4.16177e-06 4.10175e-06 1.96352e-06)
(-6.43433e-07 2.8217e-05 -3.73115e-05 -4.66972e-06 2.1729e-06 5.31316e-06)
(-1.61096e-05 5.34092e-05 -4.27085e-05 7.85791e-06 -5.08143e-06 8.25168e-06)
(-4.41021e-05 7.12213e-05 -3.59049e-05 3.56974e-05 -1.03753e-05 8.4047e-06)
(-7.24062e-05 6.10179e-05 -2.33225e-05 6.57221e-05 -1.07834e-05 6.68416e-06)
(-3.90049e-05 1.32588e-05 -5.87771e-06 3.60015e-05 -4.59407e-06 3.00341e-06)
(-5.24023e-06 -2.10515e-07 1.57763e-06 4.80478e-06 9.57022e-07 4.35454e-07)
(6.52819e-05 1.41909e-05 3.47326e-06 -6.75145e-05 -5.33712e-07 2.23262e-06)
(6.80544e-05 4.21827e-05 -3.31655e-05 -7.09873e-05 2.59564e-05 2.93292e-06)
(4.95841e-05 6.46784e-05 -8.81987e-05 -5.44891e-05 4.13474e-05 4.90494e-06)
(2.34939e-05 7.65835e-05 -0.000143568 -3.26465e-05 4.02759e-05 9.15266e-06)
(5.48865e-07 0.000118444 -0.000287781 -1.62376e-05 3.24611e-05 1.56888e-05)
(-4.45091e-05 0.000142946 -0.00044276 2.42029e-05 -2.77624e-05 2.03063e-05)
(-6.72937e-05 9.36969e-05 -0.000394999 5.11459e-05 -9.5093e-05 1.61478e-05)
(-4.2133e-05 2.70833e-05 -0.000242097 3.21595e-05 -0.000102613 9.97346e-06)
(-3.6913e-06 -2.38101e-06 -0.000121494 -2.87672e-06 -7.60316e-05 6.56802e-06)
(4.68671e-06 7.17365e-08 -6.82604e-05 -1.0048e-05 -5.87301e-05 5.36125e-06)
(8.78295e-05 2.1119e-05 -1.91069e-05 -9.17534e-05 2.29421e-05 3.9239e-06)
(7.08539e-05 5.39352e-05 -8.43919e-05 -7.85114e-05 6.4514e-05 7.65752e-06)
(3.43803e-05 7.70511e-05 -0.000248021 -5.14263e-05 0.000123348 1.7046e-05)
(-9.50446e-06 7.56666e-05 -0.000590117 -2.48464e-05 0.000174773 3.43508e-05)
(-3.80148e-05 8.52102e-05 -0.00117024 -1.6942e-05 0.000137943 5.49568e-05)
(-7.57267e-05 6.51355e-05 -0.00172629 4.72807e-06 -9.39354e-05 7.09986e-05)
(-6.01368e-05 -2.90081e-05 -0.00175529 -1.13462e-05 -0.000390937 7.1483e-05)
(4.65513e-05 -0.000126474 -0.00166586 -0.000116057 -0.000654909 6.95055e-05)
(0.000176802 -0.000131013 -0.00177672 -0.000249586 -0.00105062 7.27843e-05)
(0.000169877 -3.10859e-05 -0.00166836 -0.000231562 -0.00139297 6.16846e-05)
(2.0759e-05 2.21735e-05 -0.000140542 -2.60861e-05 0.000139105 5.32706e-06)
(-0.000174662 -9.09952e-06 -0.00074168 0.000154779 0.000526403 1.98834e-05)
(-0.000561619 -0.000376025 -0.00224554 0.00051663 0.00107489 4.4989e-05)
(-0.000751869 -0.00109983 -0.00499285 0.000682142 0.00143406 6.97268e-05)
(-0.00062102 -0.00199461 -0.00871795 0.000506883 0.000981992 0.000114137)
(-6.62356e-07 -0.00314427 -0.0120195 -0.000169581 -0.000659082 0.000170244)
(0.0013983 -0.00387956 -0.0137501 -0.0016198 -0.00308398 0.000221504)
(0.00256588 -0.00296374 -0.0130361 -0.00279611 -0.00531913 0.000230224)
(0.00196697 -0.000972626 -0.00963756 -0.00209666 -0.00596454 0.000129691)
(0.000502474 2.89544e-05 -0.00561024 -0.00053523 -0.00480125 3.2756e-05)
(-0.000327642 -4.28908e-05 -0.000255209 0.000339268 0.000233297 -1.1626e-05)
(-0.00083001 -0.000421894 -0.000713103 0.000882151 0.000473549 -5.21406e-05)
(-0.00138909 -0.0015105 -0.00150082 0.00153479 0.000676765 -0.000145709)
(-0.00137563 -0.00336492 -0.00267591 0.00167068 0.000731117 -0.000295052)
(-0.000266701 -0.00500862 -0.00399246 0.000670807 0.000414156 -0.000404106)
(0.00139241 -0.00509106 -0.00461675 -0.00100911 -0.000314228 -0.000383299)
(0.00217762 -0.00326092 -0.00389914 -0.0019293 -0.000956099 -0.000248315)
(0.00148373 -0.00108404 -0.00245545 -0.00136073 -0.00106656 -0.000123003)
(0.000448125 -8.82082e-05 -0.00126066 -0.000385387 -0.0008159 -6.27384e-05)
(3.57202e-05 2.57899e-05 -0.000572726 -1.42517e-07 -0.000497238 -3.55777e-05)
(-0.000119723 -9.70308e-06 -6.05085e-05 0.000113671 4.82705e-05 6.05154e-06)
(-0.000168925 -6.02273e-05 -9.10371e-05 0.00015901 5.17531e-05 9.9153e-06)
(-0.000318157 -0.00024644 -0.000138567 0.000305646 4.05163e-05 1.25114e-05)
(-0.000472101 -0.000764953 -0.000149543 0.000457632 3.93296e-09 1.44697e-05)
(-0.000257615 -0.00123128 -9.86205e-05 0.000231462 -3.58217e-05 2.61526e-05)
(0.000107047 -0.000924428 -2.89609e-05 -0.000148268 -3.7855e-05 4.12208e-05)
(0.000115023 -0.000270409 2.00548e-05 -0.000145948 -1.2115e-05 3.09253e-05)
(3.58884e-06 -9.38324e-06 6.75196e-06 -8.91716e-06 9.56482e-07 5.32832e-06)
(-2.63621e-05 1.82484e-06 7.69331e-06 1.95522e-05 3.37134e-06 6.80988e-06)
(-7.52032e-06 -5.44358e-06 3.77439e-06 5.60828e-06 2.89068e-06 1.91204e-06)
(-4.1436e-06 9.24153e-06 -0.000461171 -3.7705e-05 0.000378537 4.18486e-05)
(0.000197428 0.000153498 -0.000816141 -0.000280611 0.000502116 8.3183e-05)
(0.00022129 0.000427404 -0.00115689 -0.000340952 0.000464875 0.000119661)
(-5.16128e-05 0.000436721 -0.00133498 -9.41088e-05 0.000290317 0.000145722)
(-0.000266309 0.000173396 -0.00137887 9.55245e-05 6.65314e-05 0.000170785)
(-0.000266984 -4.34998e-05 -0.00121435 8.35247e-05 -0.00014201 0.000183459)
(-0.000195344 -4.38975e-05 -0.000821957 4.02239e-05 -0.000231673 0.00015512)
(-0.000198349 1.30983e-05 -0.000542375 8.57478e-05 -0.000242376 0.000112601)
(-0.000167948 -1.48872e-05 -0.000376387 9.74131e-05 -0.000242841 7.05349e-05)
(-1.8703e-05 -3.49741e-05 -0.000137013 -5.8499e-06 -0.000123129 2.45529e-05)
(0.000935408 0.000126468 -0.00398707 -0.00103829 0.00335223 0.000102879)
(0.00183733 0.000873126 -0.00587055 -0.00197615 0.00360295 0.000138819)
(0.00222897 0.00222996 -0.00704121 -0.00237755 0.00294874 0.000148577)
(0.00154138 0.00354775 -0.00901176 -0.00172881 0.00228849 0.000187432)
(3.38587e-05 0.00383355 -0.0125484 -0.000307194 0.00117755 0.000273335)
(-0.00127023 0.00267267 -0.0163816 0.000855844 -0.00119469 0.000414386)
(-0.00140051 0.00095015 -0.0158495 0.000911264 -0.00393343 0.00048925)
(-0.000763772 -2.54365e-05 -0.011169 0.000384624 -0.00483921 0.000379148)
(6.99618e-05 -0.000357359 -0.00665035 -0.000290497 -0.0042549 0.000220535)
(0.000409483 -0.000153728 -0.00329609 -0.000531041 -0.00288876 0.000121558)
(0.0020466 0.000206225 -0.00440544 -0.00197911 0.00377723 -6.74913e-05)
(0.002858 0.00128013 -0.00736854 -0.00275089 0.00461691 -0.000107111)
(0.00251913 0.00231865 -0.0092677 -0.00239286 0.00395905 -0.000126277)
(0.00149251 0.00266502 -0.010836 -0.00133223 0.00280906 -0.000160282)
(0.000588348 0.00245156 -0.014067 -0.000344081 0.0013977 -0.000244267)
(6.37168e-05 0.00184957 -0.0183333 0.000263502 -0.00120025 -0.000327219)
(-0.0001378 0.00112513 -0.0197814 0.000442447 -0.00472594 -0.000304648)
(-7.95741e-05 0.000378804 -0.0162819 0.000274964 -0.00689637 -0.00019539)
(0.000453196 -9.98511e-05 -0.0113741 -0.00034411 -0.007122 -0.000109086)
(0.000569497 4.48415e-05 -0.00777471 -0.000536774 -0.00666391 -3.27231e-05)
(0.000603183 0.000112854 -0.00143543 -0.000587984 0.00130215 -1.51995e-05)
(0.0007385 0.000428892 -0.00362614 -0.000693936 0.00241141 -4.45641e-05)
(0.000246304 0.000347964 -0.00665084 -0.000173638 0.00295625 -7.2666e-05)
(-6.20591e-05 -0.000427511 -0.00834897 0.000202694 0.00215224 -0.000140635)
(0.000313028 -0.000745254 -0.00934164 -0.00011116 0.000893049 -0.000201869)
(0.00068162 -0.000382518 -0.0118075 -0.000448441 -0.000737898 -0.000233179)
(0.000480374 0.0002698 -0.014104 -0.00029103 -0.00329176 -0.000189343)
(7.55751e-05 0.000405396 -0.0124401 7.32057e-05 -0.00521312 -0.000148781)
(3.32031e-05 0.00021256 -0.00892962 8.37262e-05 -0.0055534 -0.000116929)
(-4.75555e-05 0.000107544 -0.00644857 9.74373e-05 -0.00547435 -4.98817e-05)
(-0.000640022 -7.33052e-06 -0.001566 0.000606685 0.00145021 3.33373e-05)
(-0.00153298 -0.000614336 -0.00453467 0.00149778 0.0030441 3.52049e-05)
(-0.00211007 -0.0019555 -0.00873902 0.00208703 0.00390914 2.30462e-05)
(-0.00156629 -0.0031939 -0.0120433 0.00153958 0.00315199 2.67148e-05)
(-0.000389514 -0.00323354 -0.0150401 0.000275422 0.00150046 0.000114092)
(0.000346473 -0.00237202 -0.0200351 -0.000585057 -0.00117007 0.000238584)
(0.000352386 -0.00147152 -0.024853 -0.000688397 -0.00577468 0.000336011)
(0.000395144 -0.000862833 -0.0195719 -0.000630347 -0.0082709 0.000235203)
(0.000311079 -0.000351777 -0.0122633 -0.000444122 -0.00769228 0.000133043)
(-2.57972e-05 -0.000117532 -0.00776742 -6.91881e-05 -0.00662253 9.49853e-05)
(-0.00241799 -0.000343583 -0.00212085 0.00241879 0.00192595 -7.97602e-07)
(-0.00386202 -0.00193677 -0.00501817 0.00389562 0.00332866 -3.35925e-05)
(-0.00444916 -0.00448009 -0.00911719 0.0045143 0.00406857 -6.5145e-05)
(-0.00345731 -0.00694003 -0.0132211 0.00350803 0.00350269 -5.07274e-05)
(-0.00121306 -0.00798208 -0.0173734 0.0011853 0.00174216 2.77641e-05)
(0.00107691 -0.0070611 -0.020789 -0.0011646 -0.00134335 8.76931e-05)
(0.00228806 -0.00466186 -0.0199813 -0.0023547 -0.00476841 6.66362e-05)
(0.00199282 -0.00196738 -0.0142587 -0.00202621 -0.00608064 3.33944e-05)
(0.000781062 -0.000341948 -0.00828146 -0.000793206 -0.00522312 1.21438e-05)
(-2.53413e-05 -1.7959e-05 -0.00508732 1.34169e-05 -0.00436455 1.19244e-05)
(-0.00198487 -0.000261427 -0.00189735 0.00197306 0.0016301 1.18081e-05)
(-0.00321937 -0.00145762 -0.00396519 0.00318363 0.00252051 3.57427e-05)
(-0.00430832 -0.00391356 -0.00679717 0.00427464 0.00284861 3.36857e-05)
(-0.00375073 -0.00690917 -0.00849887 0.00374894 0.00200089 1.79627e-06)
(-0.00126112 -0.00800015 -0.00864193 0.0012854 0.000645015 -2.42797e-05)
(0.00120205 -0.00637862 -0.00782813 -0.00115932 -0.000641431 -4.27335e-05)
(0.00200781 -0.00339737 -0.00604808 -0.00196777 -0.00149641 -4.00454e-05)
(0.00133799 -0.0010647 -0.0041178 -0.00131554 -0.00175682 -2.24436e-05)
(0.000386308 -8.11186e-05 -0.00281603 -0.000368626 -0.00178661 -1.76817e-05)
(-8.81856e-05 1.50455e-05 -0.00152991 9.47754e-05 -0.00133506 -6.58979e-06)
(8.25065e-05 3.74854e-05 -0.00201921 -7.53735e-05 0.00167842 -7.13301e-06)
(-0.000175707 9.85682e-05 -0.00370675 0.00012293 0.00231035 5.27776e-05)
(-0.00111832 -0.00044003 -0.00627626 0.00099048 0.00257579 0.000127842)
(-0.00179389 -0.00214664 -0.00757086 0.00159641 0.00164211 0.000197483)
(-0.000988831 -0.00318798 -0.00623708 0.000762273 0.000263556 0.000226558)
(0.000148441 -0.00261327 -0.00426583 -0.000344997 -0.000506294 0.000196556)
(0.000536637 -0.00130757 -0.00254972 -0.000675125 -0.000711482 0.000138489)
(0.000315578 -0.000383398 -0.00146818 -0.000397596 -0.000660355 8.20188e-05)
(2.86275e-05 -4.76515e-05 -0.000918397 -6.94472e-05 -0.00059994 4.08197e-05)
(-5.7035e-05 -1.91734e-05 -0.000440884 3.69015e-05 -0.000394019 2.01335e-05)
(0.00185262 0.000288505 -0.0020163 -0.00178384 0.00176615 -6.87804e-05)
(0.00205878 0.00105876 -0.00358217 -0.0019971 0.0022964 -6.16876e-05)
(0.00158511 0.00191381 -0.00588567 -0.00156869 0.00256141 -1.64244e-05)
(0.000280422 0.00189436 -0.00968038 -0.000380771 0.00239934 0.000100349)
(-0.000736627 0.000492919 -0.0118941 0.000478222 0.000817044 0.000258406)
(-0.000570872 -0.000582985 -0.0101128 0.000250188 -0.00104925 0.000320684)
(-0.000147671 -0.000578382 -0.00662317 -0.000117706 -0.00182204 0.000265377)
(-6.2482e-05 -0.000220415 -0.0037649 -0.000103282 -0.00171734 0.000165764)
(-0.000113703 -5.10653e-05 -0.00194365 3.08927e-05 -0.00129166 8.28103e-05)
(-7.12565e-05 -3.55995e-05 -0.000827489 3.52036e-05 -0.000744773 3.60528e-05)
(0.000742075 9.82658e-05 -0.000481524 -0.000731746 0.000472606 -1.03291e-05)
(0.00135883 0.000648099 -0.00136914 -0.0013371 0.000943025 -2.17283e-05)
(0.00146394 0.00148044 -0.00246464 -0.00143636 0.00116257 -2.75806e-05)
(0.00106281 0.00242178 -0.00512719 -0.00104538 0.00144399 -1.74274e-05)
(8.27024e-05 0.00270619 -0.009143 -0.000108879 0.000890994 2.61769e-05)
(-0.00073192 0.00184062 -0.0111432 0.000634362 -0.000895844 9.7558e-05)
(-0.000787673 0.000777015 -0.00941656 0.000662066 -0.00244486 0.000125607)
(-0.000464875 0.000212326 -0.00570254 0.000383204 -0.00256166 8.16706e-05)
(-0.000201917 8.38164e-06 -0.00295412 0.000155648 -0.00195089 4.62688e-05)
(-5.14889e-05 -2.1126e-05 -0.00131804 3.16544e-05 -0.00117851 1.98345e-05)
(0.000319783 4.61714e-05 -0.000598742 -0.00034172 0.000562909 2.19377e-05)
(0.000770053 0.000403344 -0.0015817 -0.000808055 0.00106597 3.80022e-05)
(0.000918363 0.00101596 -0.0026214 -0.000970926 0.00122628 5.25637e-05)
(0.000716299 0.00186132 -0.00538284 -0.000799546 0.00152678 8.32469e-05)
(1.66269e-05 0.00227674 -0.00940174 -0.00011013 0.00095596 9.35026e-05)
(-0.000654471 0.00172862 -0.0115559 0.000561724 -0.000863537 9.27475e-05)
(-0.000782643 0.000811668 -0.0103207 0.000679884 -0.00260624 0.000102759)
(-0.000488703 0.000208289 -0.00687719 0.000413988 -0.00303478 7.47151e-05)
(-0.000158196 -2.52269e-05 -0.00385431 0.000116374 -0.00251256 4.18211e-05)
(3.46512e-06 -3.58343e-05 -0.00190924 -2.22797e-05 -0.00169105 1.88146e-05)
(0.000518881 3.13093e-05 -0.00114616 -0.000515024 0.0010268 -3.85726e-06)
(0.000907212 0.00039768 -0.00221851 -0.000895415 0.00145579 -1.17968e-05)
(0.000949112 0.000908181 -0.00329234 -0.000933525 0.00151111 -1.55862e-05)
(0.000737301 0.00145368 -0.00592963 -0.00070007 0.00165187 -3.72312e-05)
(0.000265518 0.00163866 -0.00936148 -0.000178916 0.000943765 -8.66026e-05)
(-0.000188755 0.0012266 -0.0114039 0.000299129 -0.000824502 -0.000110374)
(-0.000282175 0.000476614 -0.0107419 0.000361636 -0.00266827 -7.94609e-05)
(-9.2183e-06 -3.18388e-05 -0.00761279 5.81084e-05 -0.0033269 -4.88901e-05)
(0.000255758 -0.000127855 -0.00441331 -0.000226613 -0.00285065 -2.9145e-05)
(0.000278079 -2.817e-05 -0.00242998 -0.000265592 -0.00213463 -1.24872e-05)
(0.000422179 6.14744e-05 -0.00120311 -0.000398511 0.00106864 -2.36679e-05)
(0.000366354 0.000164727 -0.00220666 -0.000319125 0.00144863 -4.72287e-05)
(0.000244176 0.000167157 -0.00320551 -0.000170154 0.00145603 -7.40215e-05)
(0.000195901 4.58183e-05 -0.00497272 -5.79048e-05 0.00135473 -0.000137996)
(0.000282624 3.62544e-06 -0.00689048 -7.72499e-05 0.000679746 -0.000205374)
(0.000301139 4.25468e-05 -0.00820359 -7.03432e-05 -0.000588618 -0.000230795)
(0.000296531 -9.04565e-05 -0.00782142 -9.29953e-05 -0.00193692 -0.000203536)
(0.00041609 -0.00019906 -0.00562118 -0.000261896 -0.00244491 -0.000154194)
(0.000475445 -0.000136424 -0.00357018 -0.000382403 -0.00228796 -9.30421e-05)
(0.000406072 -7.21776e-06 -0.00213788 -0.000355135 -0.00187306 -5.09368e-05)
(-2.06118e-05 3.0628e-06 -0.000595719 4.37049e-05 0.000532749 -2.30931e-05)
(-0.000257215 -0.000162482 -0.00121228 0.000315094 0.00079545 -5.78789e-05)
(-0.000308744 -0.000457388 -0.0015519 0.00039644 0.000689587 -8.76954e-05)
(-0.000119787 -0.000681884 -0.00184921 0.000237267 0.000492224 -0.00011748)
(0.000164986 -0.000635113 -0.00225373 -3.75729e-05 0.000228614 -0.000127413)
(0.000345513 -0.000419623 -0.00294251 -0.000209 -0.000195438 -0.000136513)
(0.000375984 -0.000230755 -0.00310304 -0.000242947 -0.000762399 -0.000133037)
(0.000327194 -0.00011202 -0.00231414 -0.000226352 -0.00100314 -0.000100842)
(0.000269613 -4.02869e-05 -0.00168822 -0.000203052 -0.00107149 -6.65611e-05)
(0.000235375 7.21287e-06 -0.00120297 -0.000195918 -0.00104992 -3.94566e-05)
(-0.000371785 -2.84951e-05 -0.0003563 0.000372756 0.000325337 -9.71375e-07)
(-0.000876419 -0.000424807 -0.000915985 0.000885945 0.000619275 -9.52665e-06)
(-0.000935004 -0.000982764 -0.0014847 0.000935963 0.000670877 -9.59116e-07)
(-0.000560227 -0.00123022 -0.00194851 0.000524088 0.000516857 3.61391e-05)
(-0.00012023 -0.00099801 -0.00245731 3.8527e-05 0.000228335 8.17032e-05)
(0.000105219 -0.000533123 -0.00282252 -0.00017472 -0.000221186 6.95013e-05)
(0.000108747 -0.000206517 -0.00259583 -0.000142796 -0.000662743 3.40487e-05)
(4.621e-05 -5.86511e-05 -0.00181229 -6.52207e-05 -0.000798661 1.90107e-05)
(-1.48283e-05 -7.14042e-06 -0.0012022 5.6041e-06 -0.000770429 9.22418e-06)
(-4.86475e-08 -1.88473e-05 -0.000810564 -6.57171e-06 -0.000705744 6.62036e-06)
(-0.000949404 -0.000138794 -0.000707792 0.000940897 0.000647854 8.50683e-06)
(-0.00151477 -0.000758207 -0.00189223 0.00148606 0.00127817 2.87136e-05)
(-0.00160241 -0.00155604 -0.00388637 0.00148021 0.00176273 0.000122206)
(-0.00111949 -0.00193161 -0.00732495 0.00080427 0.00192151 0.000315218)
(-0.000375049 -0.000985662 -0.0109565 -6.93673e-05 0.000830498 0.000444416)
(-0.000239311 0.000334459 -0.00837731 -3.23678e-05 -0.000892312 0.000271679)
(-0.000392423 0.000509926 -0.00448722 0.00028926 -0.00125179 0.000103163)
(-0.000438827 0.000316869 -0.00256061 0.000383566 -0.00115717 5.52608e-05)
(-0.000403953 0.000151086 -0.00147133 0.000375309 -0.000955965 2.86437e-05)
(-0.000319397 2.23385e-05 -0.000880135 0.000300412 -0.00077058 1.89846e-05)
(-0.00111048 -0.000223243 -0.00073533 0.00113329 0.000668517 -2.28143e-05)
(-0.00146049 -0.000859251 -0.00200037 0.0014931 0.00136946 -3.26141e-05)
(-0.00130855 -0.00162459 -0.0057313 0.00128649 0.00264993 2.20602e-05)
(-0.000169354 -0.00105995 -0.013738 1.38536e-05 0.00355677 0.000155501)
(0.000467732 0.001616 -0.0175374 -0.000660438 0.00119586 0.000192706)
(-0.000367664 0.00260892 -0.01099 0.000287387 -0.00125966 8.02764e-05)
(-0.000861667 0.00164127 -0.00457199 0.00085484 -0.00131091 6.82669e-06)
(-0.000873977 0.000812521 -0.00229386 0.000868826 -0.00104064 5.15058e-06)
(-0.000734449 0.000355277 -0.00122624 0.000731654 -0.000797807 2.79523e-06)
(-0.000652412 0.00010538 -0.000746288 0.000648618 -0.000646095 3.79381e-06)
(-0.00037151 -9.35795e-05 -9.15535e-05 0.000389844 9.23258e-05 -1.83339e-05)
(-0.000380945 -0.000261503 -0.000390477 0.000410751 0.000295705 -2.98062e-05)
(-0.000305414 -0.000544215 -0.00203635 0.000368512 0.00100332 -6.30978e-05)
(0.000281347 -0.00022059 -0.0067391 -0.000139962 0.00185788 -0.000141385)
(0.000480727 0.000952287 -0.00986826 -0.000316273 0.000809816 -0.000164454)
(-6.98257e-05 0.00134991 -0.00669448 0.000164605 -0.000676464 -9.47797e-05)
(-0.000383885 0.000826146 -0.00274688 0.000422107 -0.00075288 -3.8222e-05)
(-0.000415619 0.000418863 -0.0013207 0.000428062 -0.00058736 -1.24429e-05)
(-0.000380328 0.000209728 -0.000668996 0.000387304 -0.000430013 -6.97651e-06)
(-0.000445585 9.538e-05 -0.000471794 0.000450494 -0.000396665 -4.90956e-06)
(-0.000370339 -7.72175e-05 8.51709e-05 0.000382556 -5.81325e-05 -1.22171e-05)
(-0.000307913 -0.000172079 -3.46404e-05 0.000324447 5.39672e-05 -1.65339e-05)
(-0.00035047 -0.000400128 -0.000444469 0.000389713 0.000244648 -3.92425e-05)
(-0.000288061 -0.000786394 -0.00147469 0.000386625 0.000439309 -9.85644e-05)
(3.8489e-05 -0.000891386 -0.00226568 0.000107169 0.000225693 -0.000145658)
(0.000238529 -0.00047816 -0.00173581 -0.000126567 -0.000143208 -0.000111962)
(0.000151285 -9.19709e-05 -0.000803113 -9.4377e-05 -0.000205127 -5.69084e-05)
(2.76914e-05 4.07663e-05 -0.000407843 -1.26069e-06 -0.00017619 -2.64307e-05)
(-7.21535e-05 6.83621e-05 -0.000227684 8.53551e-05 -0.000142139 -1.32017e-05)
(-0.000190231 5.24625e-05 -0.000249917 0.000201528 -0.000202994 -1.12965e-05)
(-0.000895879 -0.000208228 0.00067526 0.000925846 -0.000575331 -2.99678e-05)
(-0.000621203 -0.000354821 0.000610778 0.000661333 -0.000345749 -4.01308e-05)
(-0.000443831 -0.000483135 0.000380863 0.000495386 -0.0001364 -5.15552e-05)
(-0.000300238 -0.000707287 0.000329229 0.00037496 -7.04881e-05 -7.47218e-05)
(-3.21502e-05 -0.00080432 0.000351025 0.000123947 -2.65281e-05 -9.17969e-05)
(0.000205748 -0.00059327 0.000365746 -0.000122364 3.04736e-05 -8.33833e-05)
(0.000225186 -0.000252007 0.00028131 -0.000170099 7.74145e-05 -5.50864e-05)
(7.85844e-05 -2.83131e-05 8.38729e-05 -5.822e-05 4.25202e-05 -2.03644e-05)
(2.02346e-06 5.19176e-06 8.20883e-06 1.30702e-06 6.89326e-06 -3.33048e-06)
(-8.54394e-06 2.88797e-06 -2.18016e-06 1.04022e-05 -5.04879e-07 -1.85825e-06)
(-0.000791993 -0.000161502 0.00112993 0.000780464 -0.00103252 1.15291e-05)
(-0.000760241 -0.000351716 0.00216084 0.000747904 -0.00135455 1.23371e-05)
(-0.000819156 -0.000641518 0.00259395 0.000819748 -0.00110612 -5.92158e-07)
(-0.000963145 -0.00146203 0.00374496 0.00097686 -0.000984485 -1.37152e-05)
(-0.000591298 -0.00270511 0.00577399 0.000641749 -0.000564025 -5.04515e-05)
(0.000479395 -0.00316115 0.00696372 -0.000400736 0.000515075 -7.86594e-05)
(0.00122066 -0.00218799 0.00580735 -0.00115519 0.00147319 -6.54759e-05)
(0.00095977 -0.000775033 0.0031859 -0.000913984 0.00142774 -4.57857e-05)
(0.000281844 -7.2302e-05 0.00119725 -0.000258454 0.000793881 -2.33902e-05)
(3.42956e-05 -1.30852e-05 0.000444972 -3.04838e-05 0.000390958 -3.8118e-06)
(-5.63937e-06 -1.92541e-06 0.000218044 -4.37513e-06 -0.000222354 1.00145e-05)
(0.000100708 0.000103014 0.0015801 -0.000150388 -0.00104809 4.96805e-05)
(-1.82268e-05 0.000247361 0.00291521 -5.44718e-05 -0.00126144 7.26986e-05)
(-0.000441617 -7.8252e-05 0.00388508 0.000329314 -0.00100919 0.000112303)
(-0.000662373 -0.000999507 0.00585909 0.00049192 -0.000579435 0.000170454)
(-0.000185955 -0.00192403 0.00731483 -2.06542e-05 0.00051106 0.000206609)
(0.000595296 -0.00185988 0.00624743 -0.000785569 0.0015396 0.000190273)
(0.000836115 -0.000997704 0.00369968 -0.000957156 0.00161097 0.000121041)
(0.000503121 -0.000286034 0.0016293 -0.000556505 0.00104022 5.33845e-05)
(0.00029162 -7.56539e-05 0.000895706 -0.000322388 0.000749543 3.07684e-05)
(0.00012186 2.34344e-05 6.81534e-05 -0.000120864 -7.22882e-05 -9.9568e-07)
(0.000317573 0.00017715 0.000674263 -0.00032728 -0.000470346 9.70715e-06)
(0.00044868 0.000577114 0.00244063 -0.000466118 -0.00106456 1.74385e-05)
(3.85154e-05 0.000499121 0.00329612 -5.65808e-05 -0.000784579 1.80653e-05)
(-0.000248539 -2.24784e-05 0.003475 0.000201108 -0.000244841 4.7431e-05)
(-0.000158236 -0.000412799 0.00294074 7.62785e-05 0.000283119 8.19578e-05)
(5.02961e-05 -0.000386283 0.00150926 -0.000127314 0.000408118 7.70177e-05)
(0.000107193 -0.000175161 0.000493389 -0.00014981 0.000219737 4.2617e-05)
(8.35533e-05 -5.82135e-05 0.000157573 -0.000100065 9.452e-05 1.65115e-05)
(9.70895e-05 -2.3231e-05 0.000137548 -0.000108311 9.98859e-05 1.12214e-05)
(0.000297445 6.46217e-05 0.000333542 -0.000278057 -0.000291953 -1.93885e-05)
(0.000281912 0.000150809 0.000948626 -0.000230864 -0.00063456 -5.10478e-05)
(0.000146938 0.000140133 0.00391294 2.19588e-05 -0.00171745 -0.000168896)
(-0.000356176 -0.000822967 0.00756298 0.000655293 -0.00179362 -0.000299117)
(-0.000193608 -0.00203991 0.00858191 0.000424945 -0.000472117 -0.000231337)
(0.00034285 -0.00154387 0.00534262 -0.000331418 0.000699024 -1.14323e-05)
(0.000196086 -0.000328192 0.00116573 -0.000247878 0.000410535 5.17928e-05)
(3.52615e-06 -2.91587e-06 1.13202e-05 -7.73978e-06 9.92134e-06 4.21363e-06)
(-1.36195e-06 6.24983e-07 -5.64336e-06 -2.97032e-09 -3.07503e-06 1.36492e-06)
(6.03481e-06 -1.84111e-06 -8.41106e-06 -7.27446e-06 -9.81896e-06 1.23965e-06)
(8.03181e-05 3.20946e-05 0.00181811 4.6435e-05 -0.00158751 -0.000126753)
(-0.000868401 -0.000510878 0.00622898 0.00128312 -0.00408273 -0.000414722)
(-0.00328716 -0.00379776 0.019667 0.00424962 -0.00847927 -0.000962461)
(-0.00409866 -0.00946746 0.0301773 0.00514584 -0.00677244 -0.00104718)
(-0.00119549 -0.0101283 0.0213019 0.0015137 -0.000418587 -0.000318215)
(0.000621149 -0.00375797 0.00456386 -0.000781742 0.00113619 0.000160593)
(0.000184208 -0.000448046 -0.000165139 -0.000266821 0.000109252 8.26131e-05)
(8.11367e-05 -0.000253906 -0.00150649 -0.000248092 -0.000475588 0.000166955)
(-0.000184384 -4.02454e-05 -0.0015192 6.56394e-05 -0.000891217 0.000118745)
(-6.81348e-05 -8.49187e-05 -0.000894749 4.05871e-06 -0.000757551 6.40761e-05)
(-0.00409962 -0.000788021 0.0162695 0.00474556 -0.0143447 -0.00064594)
(-0.0084259 -0.00464417 0.0416505 0.0099949 -0.026374 -0.001569)
(-0.0127987 -0.0128827 0.0664615 0.0148399 -0.0272448 -0.00204121)
(-0.0113941 -0.0204976 0.0560376 0.0126524 -0.0116143 -0.00125834)
(-0.00413756 -0.0211166 0.0264237 0.00465573 -2.38204e-05 -0.000518179)
(0.00208695 -0.014522 0.00612182 -0.00192766 0.00190827 -0.000159287)
(0.00402643 -0.00764546 -0.00181902 -0.00396433 0.000338806 -6.21026e-05)
(0.00330077 -0.00314119 -0.0032023 -0.00328777 -0.000960582 -1.30013e-05)
(0.00156735 -0.000772202 -0.00249921 -0.0015981 -0.00137062 3.07456e-05)
(0.000361126 -7.69982e-05 -0.00146113 -0.000413046 -0.00115102 5.19197e-05)
(-0.0114414 -0.00304644 0.0594655 0.0123604 -0.0528586 -0.000918987)
(-0.0125148 -0.00808685 0.148352 0.0142797 -0.0941577 -0.00176494)
(-0.0112368 -0.0112875 0.211583 0.0139509 -0.0869315 -0.00271403)
(-0.0113976 -0.0171139 0.160172 0.0144482 -0.0354943 -0.0030506)
(-0.00497464 -0.03122 0.101075 0.00923534 -0.00594547 -0.0042607)
(0.00967545 -0.0365252 0.066583 -0.00462325 0.00677532 -0.0050522)
(0.0181106 -0.024481 0.0367956 -0.0137495 0.0100529 -0.00436114)
(0.0161543 -0.0112249 0.0193297 -0.0134295 0.00894393 -0.00272486)
(0.00746625 -0.00198121 0.00665213 -0.00636341 0.00470873 -0.00110284)
(0.000998205 0.00029 0.000896487 -0.000763708 0.000924615 -0.000234497)
(-0.0060862 -0.00104795 0.0619666 0.00518808 -0.0563062 0.000898121)
(-0.00481229 -0.00266549 0.17691 0.00196504 -0.115664 0.00284725)
(0.00590104 0.00589578 0.349813 -0.00955165 -0.151306 0.0036506)
(0.0107789 0.0206655 0.455699 -0.0104047 -0.111103 -0.000374128)
(0.00527883 0.01179 0.451045 0.00243692 -0.0348529 -0.00771575)
(0.0125945 -0.0203599 0.402024 0.00128241 0.0320646 -0.013877)
(0.0401907 -0.0403163 0.35238 -0.0220394 0.0857051 -0.0181513)
(0.0538389 -0.0287392 0.264489 -0.0383456 0.113374 -0.0154932)