/*--------------------------------*- C++ -*----------------------------------*\
| =========                 |                                                 |
| \\      /  F ield         | OpenFOAM: The Open Source CFD Toolbox           |
|  \\    /   O peration     | Version:  2406                                  |
|   \\  /    A nd           | Website:  www.openfoam.com                      |
|    \\/     M anipulation  |                                                 |
\*---------------------------------------------------------------------------*/
FoamFile
{
    version     2.0;
    format      ascii;
    arch        "LSB;label=32;scalar=64";
    class       volVectorField;
    location    "0.1";
    object      U;
}
// * * * * * * * * * * * * * * * * * * * * * * * * * * * * * * * * * * * * * //

dimensions      [0 1 -1 0 0 0 0];

internalField   nonuniform List<vector> 
25000
(
(-0.149565 -0.0381387 -1.43419)
(0.0338671 -0.212349 -0.387866)
(-0.077547 -0.0264424 0.572581)
(-0.463166 0.203194 0.473935)
(-0.600083 0.285895 0.308569)
(-0.488061 0.271136 0.274181)
(-0.51048 0.215632 -0.290417)
(-0.492259 0.0577803 -1.7472)
(-0.105967 -0.066616 -3.12972)
(0.331655 0.049642 -3.08203)
(-0.324562 0.0804888 -0.153377)
(-0.312825 -0.262751 0.0854889)
(-0.399839 -0.32358 0.404725)
(-0.630704 -0.143254 0.250558)
(-0.596709 0.0990219 0.23458)
(-0.389895 0.200644 0.272562)
(-0.399654 0.164436 -0.159908)
(-0.406403 0.0800418 -1.52216)
(0.00890938 -0.0234863 -2.92469)
(0.445012 0.0552058 -2.67567)
(-0.212811 -0.113119 0.840231)
(-0.377352 -0.421221 0.572211)
(-0.506961 -0.540035 0.28906)
(-0.627183 -0.483174 0.0941761)
(-0.465913 -0.31856 0.135078)
(-0.188473 -0.221747 0.262344)
(-0.17129 -0.209202 0.132815)
(-0.232318 -0.105484 -0.632034)
(0.0722739 -0.0204512 -1.61144)
(0.408296 0.0399062 -1.39031)
(-0.0169426 -0.54965 0.59461)
(-0.195488 -0.707895 0.326993)
(-0.430719 -0.709872 0.109323)
(-0.55661 -0.648985 -0.0481489)
(-0.364774 -0.563902 -0.110831)
(-0.0599957 -0.535919 0.00767258)
(0.0330384 -0.543546 0.0728815)
(-0.0632798 -0.395893 -0.0599677)
(0.00736777 -0.201848 -0.328892)
(0.174911 -0.132343 -0.0311805)
(0.0657864 -0.756475 0.275052)
(0.0458354 -0.767402 0.192981)
(-0.24359 -0.638827 0.0948439)
(-0.459234 -0.513656 -0.102143)
(-0.304593 -0.437071 -0.331602)
(0.0145508 -0.409512 -0.375776)
(0.146519 -0.421571 -0.219563)
(0.0507334 -0.339086 -0.108052)
(-0.0535302 -0.219316 0.0530885)
(0.0463786 -0.143914 0.451968)
(0.0515734 -0.775713 0.147563)
(0.16392 -0.724989 0.14118)
(-0.105889 -0.506818 0.168018)
(-0.389024 -0.323619 -0.0222204)
(-0.280829 -0.201655 -0.303984)
(0.0545552 -0.112744 -0.420738)
(0.217637 -0.0723189 -0.18914)
(0.117336 -0.0320116 -0.00844331)
(-0.0568688 0.00598392 0.233847)
(-0.0110233 0.069505 0.621695)
(-0.0417604 -0.854427 -0.546548)
(0.14155 -0.821623 -0.464128)
(-0.0303229 -0.586762 -0.0801242)
(-0.309112 -0.345232 -0.0141555)
(-0.222853 -0.158345 -0.153517)
(0.0991499 -0.0122828 -0.116241)
(0.273919 0.0863328 0.101879)
(0.168554 0.0942784 0.226809)
(0.0201212 0.0714367 0.342601)
(0.00933618 0.0897585 0.673436)
(-0.202258 -0.794969 -2.16536)
(0.0577328 -0.77079 -2.104)
(0.104432 -0.619645 -1.02921)
(-0.082044 -0.429182 -0.242312)
(-0.0634612 -0.272301 -0.0470493)
(0.174949 -0.138803 0.113226)
(0.279604 -0.0271109 0.321316)
(0.149909 -0.00776346 0.240751)
(0.115812 -0.0588068 -0.0346702)
(0.163483 -0.110366 0.238742)
(-0.269401 -0.375474 -3.50978)
(-0.00809203 -0.293794 -3.57421)
(0.207212 -0.225626 -2.15293)
(0.14647 -0.222651 -0.698314)
(0.103315 -0.270137 -0.000891273)
(0.250729 -0.23772 0.320643)
(0.278411 -0.108361 0.510435)
(0.0918175 0.038473 0.105293)
(0.0972459 0.0439511 -0.594297)
(0.239562 -0.0933899 -0.826158)
(-0.0489208 0.050541 -3.35393)
(0.145651 0.115709 -3.149)
(0.312458 0.124272 -1.79679)
(0.221328 -0.0264517 -0.2315)
(0.165811 -0.122376 0.413746)
(0.305219 -0.116989 0.66431)
(0.295071 -0.0334343 0.824345)
(0.0299384 0.156655 0.479728)
(-0.0561806 0.281139 -0.73146)
(0.0778432 0.115881 -1.55007)
(-0.844658 -1.05984 -10.9511)
(-0.444047 -1.48882 -11.5133)
(0.112915 -1.27578 -8.43437)
(0.0506011 -0.546729 -4.80014)
(-0.345184 0.164907 -3.76158)
(-0.238062 0.169066 -5.07994)
(-0.24093 -0.246731 -7.40597)
(-0.0558454 -0.772012 -9.75828)
(0.329002 -0.935589 -10.6934)
(0.359038 -0.512349 -9.16237)
(-1.19879 -0.820602 -10.5965)
(-0.803438 -1.17276 -11.4591)
(-0.148199 -1.04508 -8.72633)
(0.0665711 -0.356418 -5.40569)
(-0.261647 0.301819 -4.62221)
(-0.1904 0.339775 -5.67817)
(-0.199414 -0.211055 -7.84879)
(-0.128412 -0.782755 -10.1989)
(0.358811 -0.922582 -10.896)
(0.538335 -0.549869 -8.76479)
(-1.07016 -0.173648 -6.85199)
(-0.801528 -0.327356 -7.47963)
(-0.227098 -0.338711 -6.29471)
(0.125813 -0.0149375 -5.01222)
(-0.049782 0.451904 -4.94661)
(-0.065951 0.57067 -5.28885)
(-0.147598 0.135216 -6.83793)
(-0.0862814 -0.455402 -8.82344)
(0.441445 -0.761568 -9.23385)
(0.808348 -0.571157 -7.35562)
(-0.556626 -0.400834 -3.79915)
(-0.359032 -0.273585 -4.42415)
(0.0437904 -0.110489 -4.58952)
(0.324122 0.0986668 -5.05474)
(0.341376 0.475152 -5.57351)
(0.400787 0.610808 -5.40098)
(0.413659 0.243696 -5.96082)
(0.459412 -0.176535 -7.14348)
(0.873012 -0.503004 -7.98895)
(1.27112 -0.745257 -7.19456)
(-0.105727 -0.755354 -3.38877)
(0.148223 -0.672332 -3.93191)
(0.443629 -0.382404 -4.2353)
(0.634045 -0.00131157 -5.08941)
(0.72873 0.441869 -6.23371)
(0.821124 0.5421 -6.43019)
(0.816088 0.130418 -6.38309)
(0.729575 -0.346497 -6.56783)
(0.999387 -0.686146 -6.79152)
(1.34727 -0.941156 -6.36778)
(-0.256083 -0.70552 -5.38301)
(0.0260355 -0.769803 -5.69613)
(0.431889 -0.645632 -5.09623)
(0.616726 -0.16135 -5.16089)
(0.658692 0.382909 -6.19171)
(0.637573 0.413451 -6.67942)
(0.477839 -0.159077 -6.29208)
(0.397588 -0.852078 -6.29319)
(0.773535 -1.15895 -6.42522)
(1.19044 -1.06159 -5.85928)
(-0.645536 -0.626368 -8.27979)
(-0.537043 -0.794344 -8.83491)
(0.0160694 -0.849498 -7.38392)
(0.35099 -0.361838 -6.28731)
(0.276417 0.251259 -6.29498)
(0.0390622 0.250958 -6.27377)
(-0.230784 -0.343304 -6.14962)
(-0.0789668 -0.972036 -7.49227)
(0.623778 -1.23779 -8.41057)
(1.07897 -1.086 -7.41413)
(-1.01779 -0.336174 -10.5839)
(-0.885971 -0.552419 -11.6588)
(-0.33566 -0.630472 -10.0448)
(0.072608 -0.181651 -8.02749)
(0.0508318 0.32265 -6.80796)
(-0.409706 0.332575 -6.40063)
(-0.719527 -0.0382795 -7.33985)
(-0.361292 -0.392133 -10.0183)
(0.558599 -0.607763 -11.2676)
(1.09797 -0.675331 -9.50458)
(-1.04945 -0.0290483 -11.2046)
(-0.825961 -0.0142558 -12.2359)
(-0.403171 -0.0159241 -10.8306)
(-0.146099 0.443129 -8.74077)
(-0.0937331 0.775933 -7.28398)
(-0.492407 0.776358 -6.60391)
(-0.79338 0.659358 -7.92421)
(-0.44829 0.594151 -10.7783)
(0.370228 0.376303 -11.8449)
(0.782252 -0.00527593 -10.1689)
(-0.662912 0.0125565 -9.89917)
(-0.493631 0.186131 -10.1124)
(-0.196913 0.323989 -8.6104)
(-0.134082 0.838978 -7.486)
(-0.274385 1.12576 -6.68769)
(-0.335785 1.13757 -6.05266)
(-0.512626 1.02766 -6.94262)
(-0.456857 1.04769 -8.48742)
(0.00792122 0.845435 -9.45496)
(0.184446 0.267741 -9.13647)
(-1.50967 -2.69917 -13.2712)
(-1.34963 -2.93038 -15.2119)
(-1.3882 -3.27592 -13.9058)
(-0.719558 -3.10819 -9.42333)
(0.0203381 -2.5372 -6.53716)
(0.650851 -2.42032 -6.07673)
(1.11726 -2.82378 -6.89804)
(1.33302 -3.18908 -8.98198)
(1.34526 -3.00557 -10.4463)
(1.03878 -2.50352 -9.22631)
(-1.89049 -2.831 -13.1399)
(-1.56875 -2.81206 -15.8444)
(-1.33444 -2.90898 -14.913)
(-0.622829 -2.88051 -10.3316)
(0.191774 -2.41671 -7.51485)
(0.477682 -2.47363 -6.60334)
(0.284957 -3.06382 -6.64094)
(0.190731 -3.27955 -8.32951)
(0.423811 -2.64734 -9.48559)
(0.129422 -1.99104 -7.80366)
(-2.21578 -2.26112 -9.47188)
(-2.03167 -2.1922 -12.6182)
(-1.63008 -2.07783 -12.2855)
(-0.689126 -1.87804 -9.1911)
(0.232471 -1.57507 -7.48243)
(0.147406 -1.8733 -5.96381)
(-0.333261 -2.66698 -5.23586)
(-0.383772 -3.02795 -6.42489)
(-0.224384 -2.65448 -6.62072)
(-0.387468 -2.17071 -4.07165)
(-2.17902 -1.26095 -6.92156)
(-2.15228 -0.967053 -8.84193)
(-1.61303 -0.740905 -8.81716)
(-0.595564 -0.615563 -8.02327)
(-0.0260709 -0.819924 -7.41303)
(-0.212197 -1.46217 -5.57512)
(-0.355053 -2.26546 -4.57141)
(-0.0785543 -2.95664 -4.63754)
(0.254539 -3.03343 -3.91029)
(0.233473 -2.40503 -0.896445)
(-2.09446 -0.542896 -5.89509)
(-2.02074 -0.47586 -7.42303)
(-1.44018 -0.376399 -7.37216)
(-0.708057 -0.505513 -7.05626)
(-0.579207 -0.975204 -6.52976)
(-0.783219 -1.79517 -5.74187)
(-0.560313 -2.50833 -5.65297)
(0.149503 -2.84748 -5.72606)
(0.76764 -2.83244 -4.81767)
(0.938274 -2.30493 -0.926234)
(-2.29998 0.214283 -6.71134)
(-2.38924 -0.276453 -7.49104)
(-1.83666 -0.737154 -6.41061)
(-1.23699 -0.97164 -5.62085)
(-1.24827 -1.2278 -5.66603)
(-1.5704 -2.01211 -6.52821)
(-1.08386 -2.65009 -8.16525)
(0.0175405 -2.76145 -9.65174)
(0.866596 -2.52645 -9.24882)
(1.37539 -1.93389 -4.12571)
(-2.5548 0.75894 -8.34813)
(-2.89941 -0.271764 -9.45334)
(-2.5107 -1.09775 -7.85294)
(-1.9469 -1.23028 -6.08061)
(-1.68018 -1.06939 -5.72517)
(-1.89829 -1.43347 -7.63965)
(-1.23386 -1.68996 -11.4732)
(0.156397 -1.62511 -14.8293)
(1.18582 -1.51372 -14.9749)
(1.74922 -1.14729 -9.41738)
(-2.59828 1.1144 -10.9107)
(-2.62358 -0.116439 -12.1299)
(-2.3637 -0.973847 -10.6271)
(-2.23847 -0.967719 -7.78001)
(-1.80275 -0.522956 -6.26168)
(-1.66328 -0.533745 -8.48665)
(-1.00746 -0.34062 -13.5472)
(0.21071 -0.120373 -17.5649)
(1.23889 -0.155386 -17.7367)
(1.95918 0.00483373 -13.4315)
(-2.45376 1.01259 -12.072)
(-1.97304 0.2179 -12.9129)
(-1.86484 -0.564744 -11.11)
(-2.08889 -0.438541 -7.30143)
(-1.69313 0.0554635 -5.74101)
(-1.23581 0.209398 -7.54227)
(-0.618928 0.583808 -12.046)
(0.249818 0.866239 -16.1143)
(1.19741 0.886763 -17.0562)
(2.08681 0.953257 -14.4454)
(-2.29617 0.966706 -11.2268)
(-1.68965 0.297411 -11.3066)
(-1.65645 -0.39488 -7.98519)
(-1.68919 -0.0960242 -3.21998)
(-1.34444 0.566115 -1.73914)
(-0.747095 0.901818 -2.58056)
(-0.0409899 1.17271 -4.95486)
(0.725065 1.52666 -8.80208)
(1.50073 1.82804 -12.3008)
(2.16643 1.83105 -12.1289)
(-0.811787 -2.31599 -12.4408)
(-0.920743 -2.81661 -15.1975)
(-1.53123 -3.37633 -16.0892)
(-1.61203 -4.04009 -12.9905)
(-0.822953 -4.0837 -7.4839)
(0.054518 -3.6508 -4.01527)
(0.806159 -3.50234 -3.61945)
(1.27433 -3.3948 -4.54349)
(1.50439 -2.96087 -6.00154)
(1.63253 -2.31474 -7.28993)
(-1.36847 -2.60514 -14.975)
(-0.792729 -2.47323 -17.1708)
(-0.965369 -2.81909 -17.0885)
(-1.39064 -3.69405 -13.6456)
(-0.894733 -3.8647 -8.08974)
(-0.26767 -3.55875 -4.75108)
(0.0577526 -3.44654 -3.61294)
(0.128539 -3.03689 -5.22763)
(0.240877 -2.2562 -7.49501)
(0.36928 -1.50407 -8.24807)
(-1.68191 -2.65402 -13.4221)
(-1.03271 -2.37042 -15.9265)
(-1.23393 -2.67887 -15.315)
(-1.45917 -3.21726 -11.6808)
(-0.787506 -3.24824 -6.73818)
(-0.384576 -3.14112 -3.53494)
(-0.844363 -3.24503 -2.65356)
(-1.33034 -2.75376 -5.7288)
(-1.30838 -1.96734 -8.36706)
(-1.1388 -1.43977 -7.86555)
(-2.0268 -2.12151 -8.18728)
(-1.78264 -2.14847 -10.8298)
(-2.1953 -2.24216 -10.106)
(-1.80742 -2.20722 -7.4876)
(-0.82362 -2.16486 -5.0439)
(-0.805874 -2.52359 -2.76222)
(-1.38811 -2.89434 -2.54502)
(-1.91271 -2.79075 -5.29428)
(-2.1757 -2.37283 -7.38353)
(-1.92342 -2.00603 -6.72095)
(-2.37418 -1.1266 -4.68427)
(-2.3753 -1.43606 -6.81391)
(-2.42539 -1.27463 -6.17145)
(-1.74578 -1.32115 -4.8928)
(-1.11924 -1.77949 -3.76652)
(-1.07062 -2.24684 -3.41571)
(-1.17098 -2.68815 -4.63705)
(-1.34522 -2.87907 -7.15011)
(-1.66399 -2.75197 -8.71733)
(-1.63633 -2.34949 -6.89535)
(-2.31115 -0.238814 -3.59761)
(-2.24976 -0.927172 -5.89292)
(-2.18218 -1.22399 -4.99026)
(-1.75015 -1.81927 -4.07436)
(-1.37925 -2.19094 -4.0307)
(-1.20473 -2.33077 -6.26806)
(-0.738131 -2.34951 -10.4208)
(-0.214161 -2.2053 -14.0335)
(-0.258206 -2.08583 -14.269)
(-0.599567 -1.89584 -9.98304)
(-2.13667 0.531889 -4.27463)
(-1.78125 -0.442157 -7.00332)
(-1.66908 -1.50809 -7.62059)
(-1.54522 -2.32736 -7.58518)
(-1.49469 -2.58216 -7.20728)
(-1.26268 -2.29179 -10.749)
(-0.600757 -1.61196 -17.0392)
(0.333011 -1.06827 -20.5522)
(0.729284 -0.48106 -19.921)
(0.471152 -0.465176 -15.0071)
(-2.04061 1.16137 -6.62341)
(-1.38276 0.2811 -9.3086)
(-0.962876 -1.07955 -12.142)
(-1.04236 -2.00144 -12.9111)
(-1.35122 -2.33639 -12.161)
(-1.15478 -1.70939 -15.3631)
(-0.559882 -0.68122 -20.6546)
(0.072943 -0.31267 -21.8639)
(0.514491 0.150302 -20.8409)
(0.765542 0.486595 -17.3657)
(-1.85271 1.63396 -9.8275)
(-1.05975 1.03259 -12.5041)
(-0.698905 -0.186281 -14.6451)
(-0.848848 -1.25663 -14.8604)
(-1.09492 -1.5282 -14.5379)
(-0.767414 -0.86068 -16.8645)
(-0.0814626 -0.0868794 -20.0407)
(0.292876 0.136012 -20.8344)
(0.584185 0.315208 -19.9735)
(1.17153 0.597917 -16.9988)
(-1.56825 1.78531 -11.3291)
(-0.781592 1.28911 -13.8325)
(-0.663317 0.237925 -14.1228)
(-0.841333 -0.654836 -13.4379)
(-0.764498 -0.712581 -12.8336)
(-0.24307 -0.292699 -13.6805)
(0.490149 0.137102 -15.5932)
(0.859614 0.431347 -16.6873)
(1.02654 0.818189 -16.3016)
(1.77572 1.3092 -13.7697)
(0.71254 -0.242265 -12.508)
(0.390629 -1.15734 -13.7307)
(-0.753961 -2.05508 -14.1777)
(-2.39765 -2.75672 -13.1502)
(-2.13945 -3.3861 -8.62201)
(-0.854287 -3.11373 -4.41539)
(0.453789 -2.72975 -2.8325)
(1.74484 -2.37807 -4.55221)
(2.85217 -1.71526 -8.75211)
(2.91562 -0.598427 -11.1042)
(-0.166108 -0.430059 -16.0707)
(0.100832 -0.721372 -18.2941)
(0.0031927 -1.15278 -17.4644)
(-1.15368 -2.06583 -15.7128)
(-1.25471 -3.25075 -10.5275)
(-0.276915 -3.05752 -4.4621)
(0.595069 -2.6654 -0.890726)
(1.40326 -1.81918 -1.51853)
(2.65489 -0.684886 -6.66898)
(3.14369 0.584734 -11.608)
(-0.914468 -0.378288 -18.5364)
(-0.390598 -0.359436 -20.7359)
(-0.108785 -1.00283 -19.1453)
(-0.557077 -2.02724 -16.0864)
(-0.349049 -2.96935 -10.1496)
(0.45934 -2.95811 -3.51366)
(0.564068 -2.64988 -0.547745)
(0.879353 -1.3853 -2.311)
(2.2212 0.300996 -6.66822)
(3.01753 1.60526 -11.0232)
(-1.14397 -0.432162 -17.7754)
(-0.777809 -0.553749 -19.4551)
(-0.828752 -1.2871 -17.2239)
(-0.837983 -1.85386 -13.1952)
(-0.00961094 -1.98264 -7.09832)
(0.538486 -2.18175 -2.31514)
(0.364277 -2.31084 -1.44081)
(0.63604 -1.15765 -4.21294)
(1.75672 0.854772 -7.0433)
(2.37152 2.12061 -9.73762)
(-1.42881 -0.111463 -14.2861)
(-1.29066 -0.369268 -13.7774)
(-1.72326 -0.523759 -10.4087)
(-1.14219 -0.391959 -6.72947)
(-0.146383 -0.802966 -3.58096)
(0.218677 -1.64267 -2.78831)
(0.680342 -2.19905 -5.11177)
(1.14807 -1.4901 -8.02768)
(1.62288 0.411715 -9.03333)
(1.65158 1.76649 -9.21346)
(-1.50924 0.779966 -10.9175)
(-1.47777 0.358465 -8.16359)
(-1.84614 0.434994 -5.11244)
(-1.25505 -0.00419404 -3.44348)
(-0.794945 -0.81753 -3.49085)
(-0.294005 -1.29633 -7.07156)
(0.875192 -1.72456 -13.5678)
(1.67682 -1.06731 -15.9917)
(2.2451 0.339827 -15.0474)
(1.82875 2.03157 -12.5759)
(-1.36462 1.98137 -9.80764)
(-1.20805 1.26899 -6.56588)
(-1.08437 1.00357 -5.49739)
(-0.666008 0.582305 -6.59511)
(-1.04157 -0.272925 -8.22954)
(-0.876881 -0.510545 -14.3111)
(-0.0627552 -0.814582 -20.2771)
(0.385 0.179366 -20.7437)
(1.10119 2.10265 -19.4039)
(1.44818 3.16759 -16.534)
(-1.10705 3.15115 -11.7042)
(-0.626287 2.63557 -10.1606)
(-0.10371 2.14319 -10.3447)
(0.217831 1.82126 -11.6884)
(-0.572762 1.0738 -13.7932)
(-0.555384 0.527009 -18.7589)
(-0.180197 -0.0679343 -21.4938)
(-0.122478 0.484491 -21.3867)
(0.60972 1.60619 -20.205)
(1.15204 2.65648 -17.4653)
(-0.739808 3.62108 -13.9436)
(0.300006 3.4961 -14.9672)
(1.15255 3.09453 -15.5449)
(1.29883 2.65645 -15.5596)
(0.60878 2.27928 -15.9359)
(0.995993 2.01876 -19.2687)
(1.18603 1.24689 -21.1888)
(0.425326 1.27255 -21.0924)
(0.395526 1.14679 -19.0791)
(0.519566 1.09852 -14.636)
(0.144897 2.86303 -13.3556)
(1.10071 3.23216 -16.4041)
(1.77406 3.34427 -17.2493)
(1.92207 3.19219 -16.9469)
(1.75877 2.97524 -17.0253)
(2.31742 2.71527 -18.5613)
(2.40044 2.40183 -19.5613)
(1.29163 2.06376 -18.8578)
(0.14216 1.17977 -15.1773)
(-0.534102 0.104066 -8.90576)
(0.229359 0.457403 -17.2998)
(0.608039 0.23631 -15.9859)
(0.539133 -0.18534 -11.7408)
(-0.564041 -0.676073 -9.92944)
(-1.23232 -1.61789 -13.7384)
(-0.107809 -2.02467 -12.0519)
(1.58552 -1.67145 -12.7396)
(2.93851 -0.850894 -16.3248)
(3.57985 -0.0605684 -17.6858)
(3.45924 0.870752 -14.47)
(-0.190545 0.909111 -21.3171)
(-0.102339 0.799791 -21.591)
(-0.00481777 0.588273 -17.2612)
(-0.802408 0.255669 -14.1606)
(-0.884091 -0.963447 -14.2815)
(0.303052 -1.82741 -7.12747)
(1.47708 -1.80225 -2.95083)
(3.02523 -0.149899 -9.6133)
(3.76422 1.35493 -17.5584)
(3.66774 2.19049 -18.7361)
(-0.529822 1.28125 -23.274)
(-0.705857 1.06404 -24.8908)
(-0.464684 0.764494 -20.7404)
(-0.44614 0.661004 -16.3469)
(0.023165 -0.28556 -12.9657)
(0.936334 -1.78629 -4.37089)
(1.45009 -2.03593 -0.545294)
(2.57171 -0.154067 -4.58128)
(3.74485 2.5071 -14.6492)
(3.84021 3.42672 -18.6691)
(-0.662128 1.90725 -22.0127)
(-0.740011 1.53113 -24.5343)
(-0.165159 0.802889 -20.655)
(0.321488 0.416371 -15.9912)
(0.720274 -0.294474 -9.16932)
(0.943297 -1.7499 -2.24221)
(1.18623 -2.0753 -1.75412)
(1.97487 -0.0121338 -5.12378)
(3.18134 2.92737 -11.6153)
(3.78605 4.17021 -16.522)
(-0.588486 2.50909 -18.9429)
(-0.62072 1.87541 -19.8962)
(-0.53488 1.00427 -15.3551)
(-0.0353088 0.480911 -8.98348)
(0.069243 -0.681757 -3.70676)
(0.173373 -2.36676 -4.05197)
(0.915004 -2.8094 -7.56647)
(1.88087 -0.799371 -9.27698)
(2.45864 1.94166 -9.88655)
(3.23722 4.17491 -14.6174)
(-0.415108 3.01223 -16.4022)
(-0.911616 2.47533 -13.6387)
(-1.62555 1.54214 -6.8192)
(-1.42362 0.275263 -3.60497)
(-1.57314 -1.35644 -4.48169)
(-1.19414 -2.87343 -10.9255)
(-0.748504 -3.31368 -15.5137)
(0.362156 -0.61669 -15.6386)
(1.41945 2.20007 -13.0657)
(1.95847 4.55492 -15.0015)
(0.140726 3.74952 -15.258)
(-0.317006 3.50308 -11.8425)
(-1.57672 2.43786 -7.39866)
(-1.73775 0.87264 -8.36148)
(-2.30588 -0.868141 -10.9773)
(-1.96356 -2.65942 -16.2053)
(-2.16732 -2.92404 -17.449)
(-2.20767 0.118995 -17.0226)
(-0.992736 2.97075 -16.5306)
(0.502076 4.03849 -15.4939)
(0.801997 3.93114 -15.244)
(1.62567 4.09299 -14.7509)
(1.28344 3.56029 -13.0238)
(0.33177 2.35069 -13.6614)
(-0.524708 0.519951 -15.9641)
(-0.102793 -1.57863 -18.1846)
(-1.09656 -2.60627 -18.6095)
(-2.06559 -0.834713 -19.4816)
(-0.907868 1.15733 -18.1834)
(0.449737 2.15267 -13.9155)
(1.16869 3.28565 -14.6415)
(2.66553 3.4552 -17.74)
(3.53533 3.46022 -17.7367)
(3.30485 3.02656 -17.489)
(2.46291 2.20625 -17.6881)
(2.47292 0.40422 -18.534)
(0.987679 -0.631447 -19.3852)
(-0.946405 -0.0787953 -20.1556)
(-1.02594 0.011562 -18.0959)
(-0.707038 -0.0416469 -11.4867)
(1.90123 2.45693 -11.5798)
(2.90898 2.54377 -17.3604)
(3.64874 2.69823 -18.6005)
(3.78163 2.78389 -17.9961)
(3.6066 2.41525 -17.5053)
(3.25709 1.6384 -17.1305)
(1.78038 1.59365 -16.7915)
(-0.0993905 1.1403 -16.2166)
(-1.25584 -0.251028 -13.2007)
(-1.88082 -1.30672 -7.35058)
(-0.339172 0.81794 -20.8674)
(-0.157931 1.33739 -19.2989)
(-0.0773074 1.82319 -14.9989)
(-0.295485 1.3305 -14.4867)
(-0.119761 -0.0116889 -18.8726)
(0.561639 -0.372922 -19.487)
(1.09109 -0.400014 -23.0624)
(1.18366 0.319397 -24.2018)
(1.29759 1.28354 -22.1072)
(1.80863 2.09171 -18.322)
(-0.461827 0.858864 -25.2894)
(-0.589469 1.44824 -24.0391)
(-0.688293 1.91919 -18.7534)
(-0.849459 1.59845 -15.8872)
(-0.111699 0.926258 -15.8695)
(0.947787 0.782178 -7.96442)
(2.30471 0.977356 -11.8473)
(2.39013 1.7137 -21.2871)
(1.62326 2.02374 -24.1752)
(1.303 2.15944 -21.9237)
(-0.399704 0.497761 -27.3293)
(-0.757534 1.13524 -27.074)
(-0.825574 1.90654 -21.4202)
(0.0638776 2.35916 -14.9501)
(1.5154 2.27992 -9.99912)
(1.22205 0.637808 -2.11341)
(1.84154 1.15458 -0.172992)
(3.28674 3.47493 -10.1505)
(2.90006 3.64359 -20.2134)
(1.36446 2.69145 -21.2853)
(-0.208649 0.379091 -27.1649)
(-0.207696 1.27308 -26.8156)
(0.943757 2.67243 -20.5169)
(2.79239 3.3691 -12.0372)
(1.69046 0.660238 -5.09328)
(0.139244 -1.9598 -1.15328)
(0.0418942 -1.01542 -1.33563)
(1.67095 3.47818 -3.92372)
(2.89462 5.2527 -14.2727)
(1.32992 3.54632 -18.5473)
(0.164877 0.745881 -24.2405)
(0.695181 1.88493 -21.7588)
(1.97552 2.86859 -11.6015)
(0.995652 0.890793 -4.24231)
(-1.38022 -2.9077 -1.70793)
(-2.29105 -5.29797 -4.33296)
(-1.9295 -4.08724 -6.85991)
(-0.147041 1.08106 -6.46782)
(1.4338 5.13427 -10.5715)
(0.352532 3.66382 -15.1816)
(0.743988 1.06003 -21.2727)
(1.47594 2.55485 -16.0772)
(1.1609 2.17602 -5.09785)
(-1.46636 -1.33937 -2.54349)
(-3.66574 -4.8318 -4.74773)
(-4.41165 -7.08032 -9.14415)
(-4.53675 -5.56135 -10.277)
(-2.86667 0.114854 -9.20169)
(-1.59061 4.28623 -8.88967)
(-1.58525 3.18611 -12.0818)
(1.57215 0.623833 -20.1408)
(3.20803 2.78601 -15.4076)
(2.89048 2.96799 -6.51335)
(-0.0551694 -0.955427 -7.78053)
(-2.42855 -4.5688 -9.53014)
(-3.55756 -7.16031 -10.9723)
(-4.89664 -5.87339 -11.9886)
(-4.79711 -0.507395 -11.5658)
(-3.52728 2.55337 -10.5296)
(-2.38362 1.27778 -10.9915)
(2.21856 -0.093929 -19.5835)
(3.98461 1.73888 -19.485)
(5.70265 3.10097 -12.2364)
(5.06018 1.49241 -10.3042)
(2.88026 -1.68521 -12.3697)
(0.991517 -5.27345 -11.5205)
(-1.52222 -5.27827 -14.6757)
(-2.85248 -1.88876 -16.919)
(-2.21068 0.952835 -14.6797)
(-1.69453 -0.203643 -11.6173)
(2.71413 -0.189037 -19.0825)
(3.50956 0.177178 -22.2135)
(5.21706 1.6464 -19.5303)
(6.25356 1.49626 -16.3496)
(5.66877 -0.642571 -13.7032)
(3.50232 -3.0992 -11.636)
(0.83862 -2.93281 -14.3393)
(-0.842971 -1.72248 -19.0816)
(-1.8531 -0.299281 -19.1072)
(-1.83642 -1.34926 -14.7734)
(3.01594 0.330881 -17.8332)
(2.96992 -0.385147 -20.9979)
(3.1683 -0.571682 -20.455)
(3.19587 -0.937641 -17.5141)
(2.68588 -1.82638 -13.4841)
(1.0227 -2.28654 -11.229)
(-0.430998 -1.40611 -12.5446)
(-1.43088 -0.994065 -16.2542)
(-2.01323 -1.16898 -18.2673)
(-2.31121 -2.1591 -16.0396)
(-0.432074 0.0334414 -26.4475)
(-0.337703 -0.542746 -28.1834)
(0.0658194 -0.823099 -27.934)
(0.395359 -0.959288 -27.9425)
(0.390474 -0.762733 -27.2309)
(-0.261536 -0.601508 -26.33)
(-1.08039 -0.288007 -26.7395)
(-1.77753 0.396652 -26.4109)
(-1.96541 0.54353 -25.0009)
(-1.40681 0.216008 -21.0555)
(-0.662356 0.304701 -29.9831)
(-0.475643 0.0586646 -31.2858)
(-0.133284 0.0953347 -29.8045)
(-0.14306 0.11233 -27.3456)
(-0.277911 0.361511 -26.361)
(-0.025215 0.205256 -25.2918)
(-0.032667 -0.246844 -26.7705)
(-1.98146 -0.208329 -26.2634)
(-3.20293 -0.405994 -24.0398)
(-2.83976 -1.24172 -19.7053)
(-0.358966 0.463754 -30.1144)
(0.0991471 0.626629 -31.4395)
(0.0289668 1.20135 -30.0305)
(-0.223307 1.80851 -23.4257)
(0.144956 3.14571 -16.0848)
(1.0589 3.31006 -9.53951)
(2.32879 3.12323 -11.4645)
(1.87182 1.81783 -21.1014)
(-1.82967 -0.477992 -23.4184)
(-3.87465 -1.92437 -17.3402)
(0.180312 -0.0248064 -28.6709)
(0.771505 0.0174255 -29.8347)
(1.01713 1.64357 -29.5752)
(1.49949 3.72862 -19.8875)
(2.18721 5.0356 -6.85626)
(1.22888 3.71694 0.842742)
(1.30945 4.10353 2.68421)
(3.09683 5.01249 -6.00412)
(1.42376 1.98919 -18.9538)
(-4.02786 -1.59491 -15.5003)
(0.462326 -0.584585 -26.7771)
(0.880133 -0.326221 -27.543)
(2.23725 2.05026 -23.6604)
(3.83044 4.28813 -10.6906)
(2.52083 2.96943 -1.43025)
(-0.647682 -0.88513 -0.80657)
(-1.35717 -0.126206 0.38224)
(0.97643 4.50575 1.22342)
(2.26776 4.08624 -11.3167)
(-3.54965 -0.810979 -13.7096)
(0.436743 -1.34852 -25.4308)
(0.943869 0.0537355 -24.0035)
(3.33962 2.7243 -11.6978)
(3.5635 2.56515 -1.92146)
(-0.150077 -1.66253 -2.03387)
(-4.26498 -6.68806 -9.16049)
(-4.54914 -5.0836 -8.53434)
(-1.43991 1.99523 -0.336167)
(0.844292 4.68955 -5.52537)
(-3.26352 0.184592 -11.5261)
(0.720185 -2.41789 -25.7598)
(0.911743 -0.131078 -24.1954)
(4.09908 3.27486 -8.21893)
(3.9687 1.82031 0.568104)
(-0.509109 -3.60589 -4.43347)
(-3.49495 -7.69639 -10.1688)
(-3.83256 -5.78377 -9.35866)
(-3.03248 0.743997 -5.20006)
(-0.859097 4.49745 -3.94765)
(-3.0413 0.693587 -10.8352)
(1.20626 -3.10369 -26.0497)
(0.324337 -1.76976 -26.6976)
(3.47867 2.78981 -14.8331)
(5.73301 2.97828 -2.05584)
(4.19877 -0.306783 -1.2136)
(2.01418 -3.74366 -5.15751)
(1.57413 -5.06869 -8.72819)
(-0.446062 -0.903891 -12.0151)
(-1.31546 4.14007 -7.28304)
(-1.74022 0.155578 -12.4995)
(1.06473 -3.27454 -24.6601)
(-0.220044 -3.7455 -23.8469)
(1.01219 -0.628918 -21.2136)
(3.78515 2.04791 -12.8555)
(4.88332 1.27835 -7.43862)
(4.59725 -0.955806 -5.2243)
(3.86386 -2.60228 -6.7537)
(3.00489 -1.70899 -13.0646)
(0.892146 3.86656 -12.9778)
(0.969712 0.410215 -15.3499)
(0.247169 -2.68036 -21.3873)
(-1.12446 -3.72382 -19.2267)
(-1.45052 -4.05492 -16.9124)
(-0.851718 -3.75332 -14.6265)
(-0.131524 -3.8585 -12.3091)
(0.236926 -4.03691 -11.077)
(-0.0357424 -3.3392 -11.8745)
(-0.331357 -0.0569326 -14.5902)
(1.01979 3.09962 -16.9962)
(0.0377775 -0.0143871 -16.2444)
(-0.527881 -0.6177 -34.9048)
(-0.492992 -1.43586 -36.3201)
(0.600711 -1.80498 -33.0977)
(1.15194 -1.41626 -31.4518)
(0.407657 -0.103194 -28.4282)
(-0.996004 0.802419 -26.0262)
(-2.37301 1.13059 -24.9946)
(-3.5395 0.854423 -25.317)
(-4.06962 -0.0663493 -24.6356)
(-4.14029 -1.5701 -18.7532)
(-1.1053 -0.16216 -37.1442)
(-0.797111 -0.684965 -36.5973)
(0.749302 -0.660058 -33.9031)
(0.859215 -0.114501 -31.5906)
(-0.685219 1.28461 -27.8701)
(-2.72512 1.38529 -23.5754)
(-4.94412 0.722728 -20.6093)
(-6.56357 -0.289597 -20.6518)
(-6.92506 -1.53638 -20.8366)
(-5.76451 -2.72518 -17.7541)
(-0.954696 0.818012 -34.3889)
(-0.035678 0.695653 -32.9287)
(1.32485 1.07286 -32.1225)
(1.40509 1.4515 -30.7799)
(0.509071 2.45844 -26.6084)
(-0.16951 2.29909 -22.8197)
(-1.05626 0.521278 -22.024)
(-4.70925 -1.70258 -19.2742)
(-7.48195 -3.55405 -16.6204)
(-6.81784 -4.6083 -16.04)
(0.0373459 1.01283 -31.136)
(1.70928 -0.0333443 -28.5962)
(2.57132 0.82798 -28.1897)
(2.10597 2.848 -26.3935)
(2.17349 4.54609 -17.4523)
(2.46652 4.81716 -8.15163)
(3.05574 3.84575 -6.65552)
(2.39964 1.40155 -13.9011)
(-3.56346 -3.60852 -16.9731)
(-6.23253 -5.77234 -13.524)
(1.11612 0.151695 -28.7875)
(2.10353 -1.73404 -26.1954)
(2.82045 0.167857 -25.1468)
(2.85619 3.8328 -19.2669)
(3.28204 5.32459 -6.42694)
(2.48951 3.97453 2.39529)
(2.4885 3.1037 5.85263)
(3.99072 3.10937 0.915148)
(2.22815 -0.914779 -10.9657)
(-3.72321 -5.36558 -11.5802)
(1.48284 -1.07606 -27.2511)
(1.12418 -2.98734 -24.4137)
(2.23328 0.304352 -20.238)
(3.51762 3.98326 -7.51503)
(2.57056 3.45625 1.46979)
(0.185884 0.0567013 2.78442)
(-0.460981 -1.6837 2.9922)
(2.02434 0.794095 4.9716)
(3.52877 0.0106227 -2.51025)
(0.412083 -4.63539 -8.94592)
(1.35229 -2.45505 -26.01)
(0.211888 -4.30881 -22.0731)
(1.51701 0.493622 -17.1315)
(3.63375 3.87458 -0.545824)
(1.58365 1.85873 5.15843)
(-2.2583 -2.65849 -0.898383)
(-3.71237 -5.57704 -7.71981)
(-0.286535 -2.276 -0.081817)
(3.19598 -0.07606 1.34212)
(3.62234 -2.71923 -4.95543)
(0.727687 -3.76843 -25.4872)
(-0.667253 -5.71973 -20.4892)
(-0.411147 -1.1422 -20.441)
(3.17714 4.09602 -4.08293)
(2.85002 3.41515 5.61355)
(-0.216192 0.0522463 1.83125)
(-2.80162 -2.50695 -7.38482)
(-0.0690034 -1.94568 -8.72465)
(3.50061 1.37969 0.936875)
(5.31347 0.245358 -1.2107)
(-0.437588 -4.53948 -24.7813)
(-2.07058 -6.55532 -20.222)
(-2.62429 -5.74643 -17.4263)
(0.108896 0.599495 -13.6428)
(2.10008 3.72585 -4.11679)
(1.51433 3.27148 -0.54325)
(0.520387 2.58398 -1.1839)
(1.27269 3.84892 -4.94152)
(4.28517 4.79493 -1.21708)
(5.15587 2.99613 -0.190448)
(-1.91759 -4.50791 -20.7494)
(-3.22489 -5.75615 -18.3538)
(-4.42879 -6.43205 -15.0983)
(-4.13127 -5.5215 -13.3784)
(-3.19532 -2.21951 -11.5312)
(-2.71554 1.05348 -9.26073)
(-1.58466 4.22203 -6.95746)
(0.746117 6.78557 -5.73907)
(3.03559 6.27102 -2.03195)
(2.48579 3.13557 -0.745261)
(-0.996759 -0.744929 -39.0707)
(-1.27493 -1.59567 -41.0193)
(-0.334618 -2.2866 -36.3583)
(0.691583 -2.04278 -31.193)
(0.516677 -0.744408 -27.6345)
(-0.511595 -0.00379715 -26.7196)
(-1.31532 -0.0997018 -25.3944)
(-1.58496 -0.528119 -25.0902)
(-0.795486 -0.789726 -25.8509)
(-1.55476 -1.11433 -23.3631)
(-1.69239 -0.429154 -42.0203)
(-1.94818 -1.29544 -40.9975)
(-0.190397 -1.7298 -33.5313)
(-0.222281 -0.803648 -26.1835)
(-3.24982 1.24362 -20.0026)
(-6.18424 1.16757 -16.7669)
(-8.02932 -0.499213 -14.897)
(-7.63089 -2.70702 -15.641)
(-4.67081 -2.98158 -20.869)
(-1.65722 -1.29504 -24.2631)
(-1.9442 0.567345 -38.7783)
(-1.9424 0.168844 -35.5243)
(0.267537 0.0200709 -30.1467)
(0.533669 0.593752 -26.765)
(-1.70964 1.66877 -18.7225)
(-3.56881 0.117283 -11.9161)
(-5.36082 -3.58625 -5.62603)
(-6.64823 -6.92094 -2.91859)
(-5.79741 -7.91245 -8.08132)
(-1.95429 -3.69309 -19.7741)
(-1.33507 1.57318 -33.9927)
(0.271193 -0.0573675 -28.6373)
(1.96374 -0.824538 -23.0953)
(2.0423 1.29441 -23.8548)
(1.38175 2.35855 -19.4318)
(1.45845 0.946633 -11.8356)
(2.9147 -2.65788 -9.59897)
(0.166409 -7.34718 1.88837)
(-1.77286 -10.9291 2.44796)
(-0.374995 -6.65719 -11.187)
(-0.229927 1.5726 -31.0286)
(1.97233 -2.94343 -22.5626)
(2.61078 -2.644 -17.2001)
(1.83482 1.29448 -18.5373)
(2.03379 3.33759 -11.6832)
(2.26069 1.67897 -0.839356)
(2.40091 -1.8483 5.26923)
(2.44773 -6.68964 8.44703)
(2.91936 -10.4031 4.5)
(3.00226 -7.54082 -5.44811)
(0.486591 0.743855 -29.6622)
(1.22542 -5.5166 -18.2752)
(0.845404 -3.21244 -11.9734)
(0.392794 2.07164 -10.3969)
(0.258471 2.86167 -0.649762)
(-0.796046 -0.700878 5.93451)
(-1.58722 -5.56726 7.97417)
(1.24156 -7.9394 9.49049)
(5.12996 -8.43161 1.35804)
(6.19334 -6.21598 -7.39167)
(0.464814 -0.301314 -27.7219)
(-0.381356 -7.03656 -15.3489)
(-1.88866 -3.6453 -6.09035)
(-0.973434 3.12388 -2.69236)
(-2.48389 1.64423 6.61787)
(-5.6987 -3.70211 5.71914)
(-5.63583 -7.51274 -0.137224)
(1.00718 -5.99708 -2.38768)
(6.04874 -4.33073 -8.45857)
(7.57759 -3.20883 -13.7297)
(-0.145608 -0.947662 -26.6963)
(-2.39984 -6.83961 -15.0159)
(-4.75138 -4.89951 -1.686)
(-3.67619 2.31422 2.99474)
(-4.76426 2.46741 10.4808)
(-7.25383 -0.199998 7.18936)
(-5.00684 -0.390687 -6.74955)
(2.34134 0.755778 -15.3369)
(6.25746 1.26738 -19.2853)
(7.01623 0.24731 -21.4591)
(-1.11617 -0.898828 -26.8026)
(-3.38944 -4.36299 -19.012)
(-6.67565 -5.0318 -3.92489)
(-7.41098 -0.395999 5.54531)
(-7.18511 3.4087 8.41558)
(-7.03935 4.61792 4.04208)
(-3.25526 5.58313 -8.72703)
(2.58774 5.54721 -19.4922)
(5.3344 4.47761 -25.0035)
(5.36891 2.09481 -28.1027)
(-1.71423 -1.20057 -25.5316)
(-2.66094 -1.42495 -23.5721)
(-5.07119 -1.89113 -14.4435)
(-6.86868 -0.348901 -2.93117)
(-6.7316 3.23219 1.18717)
(-5.3879 6.26371 -2.73878)
(-2.21961 7.63629 -11.4142)
(1.39444 6.77274 -19.6821)
(3.02897 4.90609 -26.1466)
(3.31559 2.57466 -29.9509)
(-1.83837 -1.18351 -38.309)
(-2.42429 -2.40896 -40.1259)
(-2.00091 -3.41531 -37.0454)
(-0.765583 -3.77216 -32.0151)
(-0.432128 -3.33639 -26.9853)